<?xml version="1.0" encoding="UTF-8"?>

<!-- generated on 2025-09-25 18:13:36 by Eclipse SUMO GUI Version 1.24.0
<sumoConfiguration xmlns:xsi="http://www.w3.org/2001/XMLSchema-instance" xsi:noNamespaceSchemaLocation="http://sumo.dlr.de/xsd/sumoConfiguration.xsd">

    <input>
        <net-file value="/home/happy/sumo_projects/test/rl.net.xml"/>
        <route-files value="/home/happy/sumo_projects/test/rl.rou.xml"/>
        <additional-files value="/home/happy/sumo_projects/test/rl.add.xml"/>
    </input>

    <output>
        <emission-output value="/home/happy/sumo_projects/test/emission_rl.xml"/>
        <queue-output value="/home/happy/sumo_projects/test/queue_rl.xml"/>
        <summary-output value="/home/happy/sumo_projects/test/summary_rl.xml"/>
        <tripinfo-output value="/home/happy/sumo_projects/test/tripinfo_rl.xml"/>
    </output>

    <time>
        <step-length value="0.10"/>
    </time>

    <processing>
        <lateral-resolution value="0"/>
    </processing>

    <traci_server>
        <remote-port value="37537"/>
    </traci_server>

    <gui_only>
        <delay value="100"/>
    </gui_only>

</sumoConfiguration>
-->

<emission-export xmlns:xsi="http://www.w3.org/2001/XMLSchema-instance" xsi:noNamespaceSchemaLocation="http://sumo.dlr.de/xsd/emission_file.xsd">
    <timestep time="0.00">
        <vehicle id="flow_south_to_east.0" eclass="HBEFA4/PC_petrol_Euro-4" CO2="1521.00" CO="0.00" HC="0.00" NOx="0.61" PMx="0.00" fuel="493.10" electricity="0.00" noise="55.94" route="!flow_south_to_east" type="DEFAULT_VEHTYPE" waiting="0.00" lane="node2_7_sb_2" pos="5.10" speed="0.00" angle="180.00" x="-32.69" y="81.66"/>
        <vehicle id="flow_south_to_west.0" eclass="HBEFA4/PC_petrol_Euro-4" CO2="1521.00" CO="0.00" HC="0.00" NOx="0.61" PMx="0.00" fuel="493.10" electricity="0.00" noise="55.94" route="!flow_south_to_west.0!var#1" type="DEFAULT_VEHTYPE" waiting="0.00" lane="node2_7_sb_0" pos="5.10" speed="0.00" angle="180.00" x="-39.09" y="81.66"/>
        <vehicle id="flow_west_to_north.0" eclass="HBEFA4/PC_petrol_Euro-4" CO2="1521.00" CO="0.00" HC="0.00" NOx="0.61" PMx="0.00" fuel="493.10" electricity="0.00" noise="55.94" route="!flow_west_to_north.0!var#1" type="DEFAULT_VEHTYPE" waiting="0.00" lane="node1_2_eb_1" pos="5.10" speed="0.00" angle="89.81" x="-152.32" y="0.06"/>
        <vehicle id="flow_west_to_south.0" eclass="HBEFA4/PC_petrol_Euro-4" CO2="1521.00" CO="0.00" HC="0.00" NOx="0.61" PMx="0.00" fuel="493.10" electricity="0.00" noise="55.94" route="!flow_west_to_south.0!var#1" type="DEFAULT_VEHTYPE" waiting="0.00" lane="node1_2_eb_0" pos="5.10" speed="0.00" angle="89.81" x="-152.31" y="-3.14"/>
    </timestep>
    <timestep time="0.10">
        <vehicle id="flow_south_to_east.0" eclass="HBEFA4/PC_petrol_Euro-4" CO2="3382.80" CO="0.03" HC="0.00" NOx="0.64" PMx="0.01" fuel="1096.57" electricity="0.00" noise="67.25" route="!flow_south_to_east" type="DEFAULT_VEHTYPE" waiting="0.00" lane="node2_7_sb_2" pos="5.13" speed="0.25" angle="180.00" x="-32.69" y="81.63"/>
        <vehicle id="flow_south_to_west.0" eclass="HBEFA4/PC_petrol_Euro-4" CO2="3323.46" CO="0.03" HC="0.00" NOx="0.64" PMx="0.01" fuel="1077.33" electricity="0.00" noise="66.90" route="!flow_south_to_west.0!var#1" type="DEFAULT_VEHTYPE" waiting="0.00" lane="node2_7_sb_0" pos="5.12" speed="0.25" angle="180.00" x="-39.09" y="81.64"/>
        <vehicle id="flow_west_to_north.0" eclass="HBEFA4/PC_petrol_Euro-4" CO2="3402.58" CO="0.03" HC="0.00" NOx="0.64" PMx="0.01" fuel="1102.98" electricity="0.00" noise="67.36" route="!flow_west_to_north.0!var#1" type="DEFAULT_VEHTYPE" waiting="0.00" lane="node1_2_eb_1" pos="5.13" speed="0.26" angle="89.81" x="-152.29" y="0.06"/>
        <vehicle id="flow_west_to_south.0" eclass="HBEFA4/PC_petrol_Euro-4" CO2="3357.50" CO="0.03" HC="0.00" NOx="0.64" PMx="0.01" fuel="1088.37" electricity="0.00" noise="67.10" route="!flow_west_to_south.0!var#1" type="DEFAULT_VEHTYPE" waiting="0.00" lane="node1_2_eb_0" pos="5.13" speed="0.25" angle="89.81" x="-152.28" y="-3.14"/>
    </timestep>
    <timestep time="0.20">
        <vehicle id="flow_south_to_east.0" eclass="HBEFA4/PC_petrol_Euro-4" CO2="3512.57" CO="0.13" HC="0.00" NOx="0.67" PMx="0.01" fuel="1138.64" electricity="0.00" noise="67.55" route="!flow_south_to_east" type="DEFAULT_VEHTYPE" waiting="0.00" lane="node2_7_sb_2" pos="5.18" speed="0.51" angle="180.00" x="-32.69" y="81.58"/>
        <vehicle id="flow_south_to_west.0" eclass="HBEFA4/PC_petrol_Euro-4" CO2="3366.59" CO="0.11" HC="0.00" NOx="0.66" PMx="0.01" fuel="1091.32" electricity="0.00" noise="66.75" route="!flow_south_to_west.0!var#1" type="DEFAULT_VEHTYPE" waiting="0.00" lane="node2_7_sb_0" pos="5.17" speed="0.49" angle="180.00" x="-39.09" y="81.59"/>
        <vehicle id="flow_west_to_north.0" eclass="HBEFA4/PC_petrol_Euro-4" CO2="3332.92" CO="0.11" HC="0.00" NOx="0.66" PMx="0.01" fuel="1080.41" electricity="0.00" noise="66.55" route="!flow_west_to_north.0!var#1" type="DEFAULT_VEHTYPE" waiting="0.00" lane="node1_2_eb_1" pos="5.18" speed="0.49" angle="89.81" x="-152.24" y="0.06"/>
        <vehicle id="flow_west_to_south.0" eclass="HBEFA4/PC_petrol_Euro-4" CO2="3405.76" CO="0.11" HC="0.00" NOx="0.67" PMx="0.01" fuel="1104.02" electricity="0.00" noise="66.97" route="!flow_west_to_south.0!var#1" type="DEFAULT_VEHTYPE" waiting="0.00" lane="node1_2_eb_0" pos="5.17" speed="0.50" angle="89.81" x="-152.24" y="-3.14"/>
    </timestep>
    <timestep time="0.30">
        <vehicle id="flow_south_to_east.0" eclass="HBEFA4/PC_petrol_Euro-4" CO2="3305.94" CO="0.22" HC="0.00" NOx="0.69" PMx="0.02" fuel="1071.67" electricity="0.00" noise="66.04" route="!flow_south_to_east" type="DEFAULT_VEHTYPE" waiting="0.00" lane="node2_7_sb_2" pos="5.25" speed="0.74" angle="180.00" x="-32.69" y="81.51"/>
        <vehicle id="flow_south_to_west.0" eclass="HBEFA4/PC_petrol_Euro-4" CO2="3451.76" CO="0.24" HC="0.00" NOx="0.69" PMx="0.02" fuel="1118.93" electricity="0.00" noise="66.85" route="!flow_south_to_west.0!var#1" type="DEFAULT_VEHTYPE" waiting="0.00" lane="node2_7_sb_0" pos="5.25" speed="0.73" angle="180.00" x="-39.09" y="81.51"/>
        <vehicle id="flow_west_to_north.0" eclass="HBEFA4/PC_petrol_Euro-4" CO2="3569.13" CO="0.26" HC="0.00" NOx="0.70" PMx="0.02" fuel="1156.98" electricity="0.00" noise="67.47" route="!flow_west_to_north.0!var#1" type="DEFAULT_VEHTYPE" waiting="0.00" lane="node1_2_eb_1" pos="5.25" speed="0.75" angle="89.81" x="-152.17" y="0.06"/>
        <vehicle id="flow_west_to_south.0" eclass="HBEFA4/PC_petrol_Euro-4" CO2="3482.47" CO="0.25" HC="0.00" NOx="0.69" PMx="0.02" fuel="1128.89" electricity="0.00" noise="67.00" route="!flow_west_to_south.0!var#1" type="DEFAULT_VEHTYPE" waiting="0.00" lane="node1_2_eb_0" pos="5.25" speed="0.74" angle="89.81" x="-152.16" y="-3.14"/>
    </timestep>
    <timestep time="0.40">
        <vehicle id="flow_south_to_east.0" eclass="HBEFA4/PC_petrol_Euro-4" CO2="3562.67" CO="0.44" HC="0.00" NOx="0.72" PMx="0.03" fuel="1154.89" electricity="0.00" noise="67.07" route="!flow_south_to_east" type="DEFAULT_VEHTYPE" waiting="0.00" lane="node2_7_sb_2" pos="5.35" speed="0.98" angle="180.00" x="-32.69" y="81.41"/>
        <vehicle id="flow_south_to_west.0" eclass="HBEFA4/PC_petrol_Euro-4" CO2="3465.58" CO="0.40" HC="0.00" NOx="0.72" PMx="0.03" fuel="1123.42" electricity="0.00" noise="66.58" route="!flow_south_to_west.0!var#1" type="DEFAULT_VEHTYPE" waiting="0.00" lane="node2_7_sb_0" pos="5.34" speed="0.96" angle="180.00" x="-39.09" y="81.42"/>
        <vehicle id="flow_west_to_north.0" eclass="HBEFA4/PC_petrol_Euro-4" CO2="3452.47" CO="0.41" HC="0.00" NOx="0.72" PMx="0.03" fuel="1119.17" electricity="0.00" noise="66.49" route="!flow_west_to_north.0!var#1" type="DEFAULT_VEHTYPE" waiting="0.00" lane="node1_2_eb_1" pos="5.35" speed="0.98" angle="89.81" x="-152.07" y="0.06"/>
        <vehicle id="flow_west_to_south.0" eclass="HBEFA4/PC_petrol_Euro-4" CO2="3359.71" CO="0.38" HC="0.00" NOx="0.71" PMx="0.03" fuel="1089.10" electricity="0.00" noise="66.02" route="!flow_west_to_south.0!var#1" type="DEFAULT_VEHTYPE" waiting="0.00" lane="node1_2_eb_0" pos="5.35" speed="0.96" angle="89.81" x="-152.06" y="-3.14"/>
    </timestep>
    <timestep time="0.50">
        <vehicle id="flow_south_to_east.0" eclass="HBEFA4/PC_petrol_Euro-4" CO2="3647.19" CO="0.68" HC="0.00" NOx="0.75" PMx="0.03" fuel="1182.29" electricity="0.00" noise="67.15" route="!flow_south_to_east" type="DEFAULT_VEHTYPE" waiting="0.00" lane="node2_7_sb_2" pos="5.47" speed="1.23" angle="180.00" x="-32.69" y="81.29"/>
        <vehicle id="flow_south_to_west.0" eclass="HBEFA4/PC_petrol_Euro-4" CO2="3726.76" CO="0.70" HC="0.00" NOx="0.76" PMx="0.03" fuel="1208.09" electricity="0.00" noise="67.57" route="!flow_south_to_west.0!var#1" type="DEFAULT_VEHTYPE" waiting="0.00" lane="node2_7_sb_0" pos="5.46" speed="1.22" angle="180.00" x="-39.09" y="81.30"/>
        <vehicle id="flow_west_to_north.0" eclass="HBEFA4/PC_petrol_Euro-4" CO2="3661.04" CO="0.68" HC="0.00" NOx="0.75" PMx="0.03" fuel="1186.78" electricity="0.00" noise="67.22" route="!flow_west_to_north.0!var#1" type="DEFAULT_VEHTYPE" waiting="0.00" lane="node1_2_eb_1" pos="5.47" speed="1.23" angle="89.81" x="-151.95" y="0.06"/>
        <vehicle id="flow_west_to_south.0" eclass="HBEFA4/PC_petrol_Euro-4" CO2="3358.72" CO="0.54" HC="0.00" NOx="0.73" PMx="0.03" fuel="1088.79" electricity="0.00" noise="65.74" route="!flow_west_to_south.0!var#1" type="DEFAULT_VEHTYPE" waiting="0.00" lane="node1_2_eb_0" pos="5.46" speed="1.18" angle="89.81" x="-151.95" y="-3.14"/>
    </timestep>
    <timestep time="0.60">
        <vehicle id="flow_south_to_east.0" eclass="HBEFA4/PC_petrol_Euro-4" CO2="3375.99" CO="0.78" HC="0.01" NOx="0.75" PMx="0.04" fuel="1094.39" electricity="0.00" noise="65.52" route="!flow_south_to_east" type="DEFAULT_VEHTYPE" waiting="0.00" lane="node2_7_sb_2" pos="5.61" speed="1.43" angle="180.00" x="-32.69" y="81.15"/>
        <vehicle id="flow_south_to_west.0" eclass="HBEFA4/PC_petrol_Euro-4" CO2="3322.77" CO="0.75" HC="0.00" NOx="0.75" PMx="0.04" fuel="1077.14" electricity="0.00" noise="65.28" route="!flow_south_to_west.0!var#1" type="DEFAULT_VEHTYPE" waiting="0.00" lane="node2_7_sb_0" pos="5.61" speed="1.42" angle="180.00" x="-39.09" y="81.15"/>
        <vehicle id="flow_west_to_north.0" eclass="HBEFA4/PC_petrol_Euro-4" CO2="3615.81" CO="0.91" HC="0.01" NOx="0.77" PMx="0.04" fuel="1172.13" electricity="0.00" noise="66.67" route="!flow_west_to_north.0!var#1" type="DEFAULT_VEHTYPE" waiting="0.00" lane="node1_2_eb_1" pos="5.62" speed="1.46" angle="89.81" x="-151.80" y="0.06"/>
        <vehicle id="flow_west_to_south.0" eclass="HBEFA4/PC_petrol_Euro-4" CO2="3601.85" CO="0.85" HC="0.01" NOx="0.77" PMx="0.04" fuel="1167.60" electricity="0.00" noise="66.67" route="!flow_west_to_south.0!var#1" type="DEFAULT_VEHTYPE" waiting="0.00" lane="node1_2_eb_0" pos="5.60" speed="1.41" angle="89.81" x="-151.81" y="-3.14"/>
    </timestep>
    <timestep time="0.70">
        <vehicle id="flow_south_to_east.0" eclass="HBEFA4/PC_petrol_Euro-4" CO2="3608.93" CO="1.13" HC="0.01" NOx="0.79" PMx="0.05" fuel="1169.90" electricity="0.00" noise="66.39" route="!flow_south_to_east" type="DEFAULT_VEHTYPE" waiting="0.00" lane="node2_7_sb_2" pos="5.78" speed="1.65" angle="180.00" x="-32.69" y="80.98"/>
        <vehicle id="flow_south_to_west.0" eclass="HBEFA4/PC_petrol_Euro-4" CO2="3725.02" CO="1.19" HC="0.01" NOx="0.80" PMx="0.05" fuel="1207.53" electricity="0.00" noise="66.94" route="!flow_south_to_west.0!var#1" type="DEFAULT_VEHTYPE" waiting="0.00" lane="node2_7_sb_0" pos="5.77" speed="1.65" angle="180.00" x="-39.09" y="80.99"/>
        <vehicle id="flow_west_to_north.0" eclass="HBEFA4/PC_petrol_Euro-4" CO2="3234.94" CO="0.92" HC="0.01" NOx="0.76" PMx="0.04" fuel="1048.67" electricity="0.00" noise="64.62" route="!flow_west_to_north.0!var#1" type="DEFAULT_VEHTYPE" waiting="0.00" lane="node1_2_eb_1" pos="5.78" speed="1.64" angle="89.81" x="-151.64" y="0.06"/>
        <vehicle id="flow_west_to_south.0" eclass="HBEFA4/PC_petrol_Euro-4" CO2="3426.78" CO="0.99" HC="0.01" NOx="0.77" PMx="0.04" fuel="1110.86" electricity="0.00" noise="65.57" route="!flow_west_to_south.0!var#1" type="DEFAULT_VEHTYPE" waiting="0.00" lane="node1_2_eb_0" pos="5.77" speed="1.61" angle="89.81" x="-151.64" y="-3.14"/>
    </timestep>
    <timestep time="0.80">
        <vehicle id="flow_south_to_east.0" eclass="HBEFA4/PC_petrol_Euro-4" CO2="3257.04" CO="1.13" HC="0.01" NOx="0.77" PMx="0.05" fuel="1055.84" electricity="0.00" noise="64.55" route="!flow_south_to_east" type="DEFAULT_VEHTYPE" waiting="0.00" lane="node2_7_sb_2" pos="5.96" speed="1.83" angle="180.00" x="-32.69" y="80.80"/>
        <vehicle id="flow_south_to_west.0" eclass="HBEFA4/PC_petrol_Euro-4" CO2="3336.76" CO="1.19" HC="0.01" NOx="0.78" PMx="0.05" fuel="1081.68" electricity="0.00" noise="64.91" route="!flow_south_to_west.0!var#1" type="DEFAULT_VEHTYPE" waiting="0.00" lane="node2_7_sb_0" pos="5.96" speed="1.84" angle="180.00" x="-39.09" y="80.80"/>
        <vehicle id="flow_west_to_north.0" eclass="HBEFA4/PC_petrol_Euro-4" CO2="3441.01" CO="1.25" HC="0.01" NOx="0.79" PMx="0.05" fuel="1115.47" electricity="0.00" noise="65.40" route="!flow_west_to_north.0!var#1" type="DEFAULT_VEHTYPE" waiting="0.00" lane="node1_2_eb_1" pos="5.97" speed="1.84" angle="89.81" x="-151.45" y="0.06"/>
        <vehicle id="flow_west_to_south.0" eclass="HBEFA4/PC_petrol_Euro-4" CO2="3668.59" CO="1.40" HC="0.01" NOx="0.81" PMx="0.05" fuel="1189.25" electricity="0.00" noise="66.45" route="!flow_west_to_south.0!var#1" type="DEFAULT_VEHTYPE" waiting="0.00" lane="node1_2_eb_0" pos="5.95" speed="1.84" angle="89.81" x="-151.46" y="-3.14"/>
    </timestep>
    <timestep time="0.90">
        <vehicle id="flow_south_to_east.0" eclass="HBEFA4/PC_petrol_Euro-4" CO2="3269.24" CO="1.33" HC="0.01" NOx="0.79" PMx="0.06" fuel="1059.80" electricity="0.00" noise="64.45" route="!flow_south_to_east" type="DEFAULT_VEHTYPE" waiting="0.00" lane="node2_7_sb_2" pos="6.16" speed="2.01" angle="180.00" x="-32.69" y="80.60"/>
        <vehicle id="flow_south_to_west.0" eclass="HBEFA4/PC_petrol_Euro-4" CO2="3866.36" CO="1.88" HC="0.01" NOx="0.85" PMx="0.06" fuel="1253.36" electricity="0.00" noise="67.06" route="!flow_south_to_west.0!var#1" type="DEFAULT_VEHTYPE" waiting="0.00" lane="node2_7_sb_0" pos="6.16" speed="2.08" angle="180.00" x="-39.09" y="80.60"/>
        <vehicle id="flow_west_to_north.0" eclass="HBEFA4/PC_petrol_Euro-4" CO2="3202.62" CO="1.28" HC="0.01" NOx="0.78" PMx="0.06" fuel="1038.20" electricity="0.00" noise="64.16" route="!flow_west_to_north.0!var#1" type="DEFAULT_VEHTYPE" waiting="0.00" lane="node1_2_eb_1" pos="6.17" speed="2.01" angle="89.81" x="-151.25" y="0.06"/>
        <vehicle id="flow_west_to_south.0" eclass="HBEFA4/PC_petrol_Euro-4" CO2="3763.74" CO="1.78" HC="0.01" NOx="0.84" PMx="0.06" fuel="1220.09" electricity="0.00" noise="66.62" route="!flow_west_to_south.0!var#1" type="DEFAULT_VEHTYPE" waiting="0.00" lane="node1_2_eb_0" pos="6.16" speed="2.06" angle="89.81" x="-151.25" y="-3.14"/>
    </timestep>
    <timestep time="1.00">
        <vehicle id="flow_south_to_east.0" eclass="HBEFA4/PC_petrol_Euro-4" CO2="3875.52" CO="2.15" HC="0.01" NOx="0.87" PMx="0.06" fuel="1256.33" electricity="0.00" noise="66.91" route="!flow_south_to_east" type="DEFAULT_VEHTYPE" waiting="0.00" lane="node2_7_sb_2" pos="6.39" speed="2.24" angle="180.00" x="-32.69" y="80.37"/>
        <vehicle id="flow_south_to_west.0" eclass="HBEFA4/PC_petrol_Euro-4" CO2="4043.23" CO="2.44" HC="0.02" NOx="0.89" PMx="0.07" fuel="1310.70" electricity="0.00" noise="67.54" route="!flow_south_to_west.0!var#1" type="DEFAULT_VEHTYPE" waiting="0.00" lane="node2_7_sb_0" pos="6.40" speed="2.32" angle="180.00" x="-39.09" y="80.36"/>
        <vehicle id="flow_west_to_north.0" eclass="HBEFA4/PC_petrol_Euro-4" CO2="3182.13" CO="1.44" HC="0.01" NOx="0.79" PMx="0.06" fuel="1031.57" electricity="0.00" noise="63.94" route="!flow_west_to_north.0!var#1" type="DEFAULT_VEHTYPE" waiting="0.00" lane="node1_2_eb_1" pos="6.38" speed="2.17" angle="89.81" x="-151.04" y="0.06"/>
        <vehicle id="flow_west_to_south.0" eclass="HBEFA4/PC_petrol_Euro-4" CO2="3618.75" CO="1.95" HC="0.01" NOx="0.84" PMx="0.06" fuel="1173.10" electricity="0.00" noise="65.77" route="!flow_west_to_south.0!var#1" type="DEFAULT_VEHTYPE" waiting="0.00" lane="node1_2_eb_0" pos="6.38" speed="2.26" angle="89.81" x="-151.03" y="-3.14"/>
    </timestep>
    <timestep time="1.10">
        <vehicle id="flow_south_to_east.0" eclass="HBEFA4/PC_petrol_Euro-4" CO2="3148.29" CO="1.66" HC="0.01" NOx="0.80" PMx="0.07" fuel="1020.60" electricity="0.00" noise="63.64" route="!flow_south_to_east" type="DEFAULT_VEHTYPE" waiting="0.00" lane="node2_7_sb_2" pos="6.63" speed="2.39" angle="180.00" x="-32.69" y="80.13"/>
        <vehicle id="flow_south_to_west.0" eclass="HBEFA4/PC_petrol_Euro-4" CO2="4299.37" CO="3.20" HC="0.02" NOx="0.95" PMx="0.07" fuel="1393.73" electricity="0.00" noise="68.30" route="!flow_south_to_west.0!var#1" type="DEFAULT_VEHTYPE" waiting="0.00" lane="node2_7_sb_0" pos="6.65" speed="2.58" angle="180.00" x="-39.09" y="80.11"/>
        <vehicle id="flow_west_to_north.0" eclass="HBEFA4/PC_petrol_Euro-4" CO2="3218.66" CO="1.66" HC="0.01" NOx="0.80" PMx="0.06" fuel="1043.41" electricity="0.00" noise="63.98" route="!flow_west_to_north.0!var#1" type="DEFAULT_VEHTYPE" waiting="0.00" lane="node1_2_eb_1" pos="6.62" speed="2.33" angle="89.81" x="-150.80" y="0.06"/>
        <vehicle id="flow_west_to_south.0" eclass="HBEFA4/PC_petrol_Euro-4" CO2="3585.52" CO="2.20" HC="0.01" NOx="0.85" PMx="0.07" fuel="1162.33" electricity="0.00" noise="65.44" route="!flow_west_to_south.0!var#1" type="DEFAULT_VEHTYPE" waiting="0.00" lane="node1_2_eb_0" pos="6.63" speed="2.46" angle="89.81" x="-150.78" y="-3.14"/>
    </timestep>
    <timestep time="1.20">
        <vehicle id="flow_south_to_east.0" eclass="HBEFA4/PC_petrol_Euro-4" CO2="3741.60" CO="2.59" HC="0.02" NOx="0.88" PMx="0.07" fuel="1212.93" electricity="0.00" noise="65.97" route="!flow_south_to_east" type="DEFAULT_VEHTYPE" waiting="0.00" lane="node2_7_sb_2" pos="6.89" speed="2.60" angle="180.00" x="-32.69" y="79.87"/>
        <vehicle id="flow_south_to_west.0" eclass="HBEFA4/PC_petrol_Euro-4" CO2="3847.43" CO="3.04" HC="0.02" NOx="0.91" PMx="0.08" fuel="1247.24" electricity="0.00" noise="66.22" route="!flow_south_to_west.0!var#1" type="DEFAULT_VEHTYPE" waiting="0.00" lane="node2_7_sb_0" pos="6.93" speed="2.79" angle="180.00" x="-39.09" y="79.83"/>
        <vehicle id="flow_west_to_north.0" eclass="HBEFA4/PC_petrol_Euro-4" CO2="4109.89" CO="2.97" HC="0.02" NOx="0.92" PMx="0.07" fuel="1332.31" electricity="0.00" noise="67.51" route="!flow_west_to_north.0!var#1" type="DEFAULT_VEHTYPE" waiting="0.00" lane="node1_2_eb_1" pos="6.87" speed="2.57" angle="89.81" x="-150.55" y="0.06"/>
        <vehicle id="flow_west_to_south.0" eclass="HBEFA4/PC_petrol_Euro-4" CO2="3688.30" CO="2.62" HC="0.02" NOx="0.88" PMx="0.07" fuel="1195.65" electricity="0.00" noise="65.69" route="!flow_west_to_south.0!var#1" type="DEFAULT_VEHTYPE" waiting="0.00" lane="node1_2_eb_0" pos="6.89" speed="2.66" angle="89.81" x="-150.52" y="-3.14"/>
    </timestep>
    <timestep time="1.30">
        <vehicle id="flow_south_to_east.0" eclass="HBEFA4/PC_petrol_Euro-4" CO2="3572.46" CO="2.68" HC="0.02" NOx="0.87" PMx="0.08" fuel="1158.10" electricity="0.00" noise="65.12" route="!flow_south_to_east" type="DEFAULT_VEHTYPE" waiting="0.00" lane="node2_7_sb_2" pos="7.17" speed="2.78" angle="180.00" x="-32.69" y="79.59"/>
        <vehicle id="flow_south_to_west.0" eclass="HBEFA4/PC_petrol_Euro-4" CO2="3576.14" CO="2.97" HC="0.02" NOx="0.89" PMx="0.08" fuel="1159.30" electricity="0.00" noise="64.99" route="!flow_south_to_west.0!var#1" type="DEFAULT_VEHTYPE" waiting="0.00" lane="node2_7_sb_0" pos="7.23" speed="2.97" angle="180.00" x="-39.09" y="79.53"/>
        <vehicle id="flow_west_to_north.0" eclass="HBEFA4/PC_petrol_Euro-4" CO2="3919.64" CO="3.14" HC="0.02" NOx="0.92" PMx="0.08" fuel="1270.64" electricity="0.00" noise="66.51" route="!flow_west_to_north.0!var#1" type="DEFAULT_VEHTYPE" waiting="0.00" lane="node1_2_eb_1" pos="7.15" speed="2.79" angle="89.81" x="-150.27" y="0.06"/>
        <vehicle id="flow_west_to_south.0" eclass="HBEFA4/PC_petrol_Euro-4" CO2="3103.17" CO="2.08" HC="0.01" NOx="0.81" PMx="0.08" fuel="1005.98" electricity="0.00" noise="63.23" route="!flow_west_to_south.0!var#1" type="DEFAULT_VEHTYPE" waiting="0.00" lane="node1_2_eb_0" pos="7.17" speed="2.80" angle="89.81" x="-150.24" y="-3.14"/>
    </timestep>
    <timestep time="1.40">
        <vehicle id="flow_south_to_east.0" eclass="HBEFA4/PC_petrol_Euro-4" CO2="3569.80" CO="2.95" HC="0.02" NOx="0.89" PMx="0.08" fuel="1157.24" electricity="0.00" noise="64.97" route="!flow_south_to_east" type="DEFAULT_VEHTYPE" waiting="0.00" lane="node2_7_sb_2" pos="7.46" speed="2.96" angle="180.00" x="-32.69" y="79.30"/>
        <vehicle id="flow_south_to_west.0" eclass="HBEFA4/PC_petrol_Euro-4" CO2="3164.86" CO="2.56" HC="0.02" NOx="0.84" PMx="0.09" fuel="1025.98" electricity="0.00" noise="63.32" route="!flow_south_to_west.0!var#1" type="DEFAULT_VEHTYPE" waiting="0.00" lane="node2_7_sb_0" pos="7.54" speed="3.11" angle="180.00" x="-39.09" y="79.22"/>
        <vehicle id="flow_west_to_north.0" eclass="HBEFA4/PC_petrol_Euro-4" CO2="3852.04" CO="3.42" HC="0.02" NOx="0.93" PMx="0.09" fuel="1248.73" electricity="0.00" noise="66.05" route="!flow_west_to_north.0!var#1" type="DEFAULT_VEHTYPE" waiting="0.00" lane="node1_2_eb_1" pos="7.45" speed="2.99" angle="89.81" x="-149.97" y="0.07"/>
        <vehicle id="flow_west_to_south.0" eclass="HBEFA4/PC_petrol_Euro-4" CO2="3048.42" CO="2.17" HC="0.01" NOx="0.81" PMx="0.08" fuel="988.23" electricity="0.00" noise="62.95" route="!flow_west_to_south.0!var#1" type="DEFAULT_VEHTYPE" waiting="0.00" lane="node1_2_eb_0" pos="7.47" speed="2.93" angle="89.81" x="-149.94" y="-3.13"/>
    </timestep>
    <timestep time="1.50">
        <vehicle id="flow_south_to_east.0" eclass="HBEFA4/PC_petrol_Euro-4" CO2="4130.35" CO="4.22" HC="0.03" NOx="0.98" PMx="0.09" fuel="1338.96" electricity="0.00" noise="66.95" route="!flow_south_to_east" type="DEFAULT_VEHTYPE" waiting="0.00" lane="node2_7_sb_2" pos="7.78" speed="3.18" angle="180.00" x="-32.69" y="78.98"/>
        <vehicle id="flow_south_to_west.0" eclass="HBEFA4/PC_petrol_Euro-4" CO2="4466.48" CO="5.16" HC="0.03" NOx="1.05" PMx="0.10" fuel="1447.92" electricity="0.00" noise="68.04" route="!flow_south_to_west.0!var#1" type="DEFAULT_VEHTYPE" waiting="0.00" lane="node2_7_sb_0" pos="7.87" speed="3.35" angle="180.00" x="-39.09" y="78.89"/>
        <vehicle id="flow_west_to_north.0" eclass="HBEFA4/PC_petrol_Euro-4" CO2="3614.64" CO="3.37" HC="0.02" NOx="0.91" PMx="0.09" fuel="1171.78" electricity="0.00" noise="65.00" route="!flow_west_to_north.0!var#1" type="DEFAULT_VEHTYPE" waiting="0.00" lane="node1_2_eb_1" pos="7.77" speed="3.17" angle="89.81" x="-149.65" y="0.07"/>
        <vehicle id="flow_west_to_south.0" eclass="HBEFA4/PC_petrol_Euro-4" CO2="3709.94" CO="3.43" HC="0.02" NOx="0.92" PMx="0.09" fuel="1202.67" electricity="0.00" noise="65.40" route="!flow_west_to_south.0!var#1" type="DEFAULT_VEHTYPE" waiting="0.00" lane="node1_2_eb_0" pos="7.78" speed="3.12" angle="89.81" x="-149.63" y="-3.13"/>
    </timestep>
    <timestep time="1.60">
        <vehicle id="flow_south_to_east.0" eclass="HBEFA4/PC_petrol_Euro-4" CO2="3683.88" CO="3.81" HC="0.03" NOx="0.93" PMx="0.10" fuel="1194.23" electricity="0.00" noise="65.12" route="!flow_south_to_east" type="DEFAULT_VEHTYPE" waiting="0.00" lane="node2_7_sb_2" pos="8.12" speed="3.36" angle="180.00" x="-32.69" y="78.64"/>
        <vehicle id="flow_south_to_west.0" eclass="HBEFA4/PC_petrol_Euro-4" CO2="4349.39" CO="5.49" HC="0.04" NOx="1.05" PMx="0.11" fuel="1409.97" electricity="0.00" noise="67.38" route="!flow_south_to_west.0!var#1" type="DEFAULT_VEHTYPE" waiting="0.00" lane="node2_7_sb_0" pos="8.23" speed="3.58" angle="180.00" x="-39.09" y="78.53"/>
        <vehicle id="flow_west_to_north.0" eclass="HBEFA4/PC_petrol_Euro-4" CO2="4618.98" CO="5.62" HC="0.04" NOx="1.08" PMx="0.10" fuel="1497.35" electricity="0.00" noise="68.52" route="!flow_west_to_north.0!var#1" type="DEFAULT_VEHTYPE" waiting="0.00" lane="node1_2_eb_1" pos="8.11" speed="3.43" angle="89.81" x="-149.31" y="0.07"/>
        <vehicle id="flow_west_to_south.0" eclass="HBEFA4/PC_petrol_Euro-4" CO2="3118.09" CO="2.67" HC="0.02" NOx="0.84" PMx="0.09" fuel="1010.82" electricity="0.00" noise="63.08" route="!flow_west_to_south.0!var#1" type="DEFAULT_VEHTYPE" waiting="0.00" lane="node1_2_eb_0" pos="8.10" speed="3.25" angle="89.81" x="-149.31" y="-3.13"/>
    </timestep>
    <timestep time="1.70">
        <vehicle id="flow_south_to_east.0" eclass="HBEFA4/PC_petrol_Euro-4" CO2="3324.70" CO="3.40" HC="0.02" NOx="0.88" PMx="0.10" fuel="1077.80" electricity="0.00" noise="63.73" route="!flow_south_to_east" type="DEFAULT_VEHTYPE" waiting="0.00" lane="node2_7_sb_2" pos="8.47" speed="3.51" angle="180.00" x="-32.69" y="78.29"/>
        <vehicle id="flow_south_to_west.0" eclass="HBEFA4/PC_petrol_Euro-4" CO2="4570.83" CO="6.54" HC="0.04" NOx="1.10" PMx="0.11" fuel="1481.75" electricity="0.00" noise="67.94" route="!flow_south_to_west.0!var#1" type="DEFAULT_VEHTYPE" waiting="0.00" lane="node2_7_sb_0" pos="8.61" speed="3.82" angle="180.00" x="-39.09" y="78.15"/>
        <vehicle id="flow_west_to_north.0" eclass="HBEFA4/PC_petrol_Euro-4" CO2="3534.01" CO="3.93" HC="0.03" NOx="0.92" PMx="0.10" fuel="1145.65" electricity="0.00" noise="64.44" route="!flow_west_to_north.0!var#1" type="DEFAULT_VEHTYPE" waiting="0.00" lane="node1_2_eb_1" pos="8.47" speed="3.59" angle="89.81" x="-148.95" y="0.07"/>
        <vehicle id="flow_west_to_south.0" eclass="HBEFA4/PC_petrol_Euro-4" CO2="3841.95" CO="4.24" HC="0.03" NOx="0.96" PMx="0.10" fuel="1245.47" electricity="0.00" noise="65.65" route="!flow_west_to_south.0!var#1" type="DEFAULT_VEHTYPE" waiting="0.00" lane="node1_2_eb_0" pos="8.45" speed="3.44" angle="89.81" x="-148.96" y="-3.13"/>
    </timestep>
    <timestep time="1.80">
        <vehicle id="flow_south_to_east.0" eclass="HBEFA4/PC_petrol_Euro-4" CO2="4362.58" CO="5.89" HC="0.04" NOx="1.06" PMx="0.11" fuel="1414.24" electricity="0.00" noise="67.29" route="!flow_south_to_east" type="DEFAULT_VEHTYPE" waiting="0.00" lane="node2_7_sb_2" pos="8.84" speed="3.73" angle="180.00" x="-32.69" y="77.92"/>
        <vehicle id="flow_south_to_west.0" eclass="HBEFA4/PC_petrol_Euro-4" CO2="3750.06" CO="5.11" HC="0.03" NOx="0.98" PMx="0.12" fuel="1215.69" electricity="0.00" noise="64.97" route="!flow_south_to_west.0!var#1" type="DEFAULT_VEHTYPE" waiting="0.00" lane="node2_7_sb_0" pos="9.01" speed="3.99" angle="180.00" x="-39.09" y="77.75"/>
        <vehicle id="flow_west_to_north.0" eclass="HBEFA4/PC_petrol_Euro-4" CO2="3777.97" CO="4.74" HC="0.03" NOx="0.97" PMx="0.11" fuel="1224.73" electricity="0.00" noise="65.20" route="!flow_west_to_north.0!var#1" type="DEFAULT_VEHTYPE" waiting="0.00" lane="node1_2_eb_1" pos="8.85" speed="3.76" angle="89.81" x="-148.57" y="0.07"/>
        <vehicle id="flow_west_to_south.0" eclass="HBEFA4/PC_petrol_Euro-4" CO2="4190.40" CO="5.35" HC="0.04" NOx="1.03" PMx="0.11" fuel="1358.43" electricity="0.00" noise="66.74" route="!flow_west_to_south.0!var#1" type="DEFAULT_VEHTYPE" waiting="0.00" lane="node1_2_eb_0" pos="8.81" speed="3.65" angle="89.81" x="-148.60" y="-3.13"/>
    </timestep>
    <timestep time="1.90">
        <vehicle id="flow_south_to_east.0" eclass="HBEFA4/PC_petrol_Euro-4" CO2="4468.26" CO="6.68" HC="0.04" NOx="1.10" PMx="0.12" fuel="1448.50" electricity="0.00" noise="67.45" route="!flow_south_to_east" type="DEFAULT_VEHTYPE" waiting="0.00" lane="node2_7_sb_2" pos="9.24" speed="3.96" angle="180.00" x="-32.69" y="77.52"/>
        <vehicle id="flow_south_to_west.0" eclass="HBEFA4/PC_petrol_Euro-4" CO2="4101.55" CO="6.35" HC="0.04" NOx="1.05" PMx="0.12" fuel="1329.63" electricity="0.00" noise="66.04" route="!flow_south_to_west.0!var#1" type="DEFAULT_VEHTYPE" waiting="0.00" lane="node2_7_sb_0" pos="9.43" speed="4.18" angle="180.00" x="-39.09" y="77.33"/>
        <vehicle id="flow_west_to_north.0" eclass="HBEFA4/PC_petrol_Euro-4" CO2="4299.97" CO="6.34" HC="0.04" NOx="1.07" PMx="0.12" fuel="1393.95" electricity="0.00" noise="66.86" route="!flow_west_to_north.0!var#1" type="DEFAULT_VEHTYPE" waiting="0.00" lane="node1_2_eb_1" pos="9.25" speed="3.98" angle="89.81" x="-148.17" y="0.07"/>
        <vehicle id="flow_west_to_south.0" eclass="HBEFA4/PC_petrol_Euro-4" CO2="3693.81" CO="4.67" HC="0.03" NOx="0.96" PMx="0.11" fuel="1197.45" electricity="0.00" noise="64.87" route="!flow_west_to_south.0!var#1" type="DEFAULT_VEHTYPE" waiting="0.00" lane="node1_2_eb_0" pos="9.19" speed="3.82" angle="89.81" x="-148.22" y="-3.13"/>
    </timestep>
    <timestep time="2.00">
        <vehicle id="flow_south_to_east.0" eclass="HBEFA4/PC_petrol_Euro-4" CO2="4449.50" CO="7.19" HC="0.05" NOx="1.11" PMx="0.12" fuel="1442.43" electricity="0.00" noise="67.20" route="!flow_south_to_east" type="DEFAULT_VEHTYPE" waiting="0.00" lane="node2_7_sb_2" pos="9.65" speed="4.18" angle="180.00" x="-32.69" y="77.11"/>
        <vehicle id="flow_south_to_west.0" eclass="HBEFA4/PC_petrol_Euro-4" CO2="4312.78" CO="7.37" HC="0.05" NOx="1.11" PMx="0.13" fuel="1398.11" electricity="0.00" noise="66.59" route="!flow_south_to_west.0!var#1" type="DEFAULT_VEHTYPE" waiting="0.00" lane="node2_7_sb_0" pos="9.87" speed="4.38" angle="180.00" x="-39.09" y="76.89"/>
        <vehicle id="flow_west_to_north.0" eclass="HBEFA4/PC_petrol_Euro-4" CO2="3694.34" CO="5.28" HC="0.03" NOx="0.98" PMx="0.12" fuel="1197.63" electricity="0.00" noise="64.71" route="!flow_west_to_north.0!var#1" type="DEFAULT_VEHTYPE" waiting="0.00" lane="node1_2_eb_1" pos="9.66" speed="4.14" angle="89.81" x="-147.76" y="0.07"/>