<?xml version="1.0" encoding="UTF-8"?>

<!-- generated on 2025-09-25 18:07:43 by Eclipse SUMO GUI Version 1.24.0
<sumoConfiguration xmlns:xsi="http://www.w3.org/2001/XMLSchema-instance" xsi:noNamespaceSchemaLocation="http://sumo.dlr.de/xsd/sumoConfiguration.xsd">

    <input>
        <net-file value="/home/happy/sumo_projects/test/rl.net.xml"/>
        <route-files value="/home/happy/sumo_projects/test/rl.rou.xml"/>
        <additional-files value="/home/happy/sumo_projects/test/rl.add.xml"/>
    </input>

    <output>
        <emission-output value="/home/happy/sumo_projects/test/emission_baseline.xml"/>
        <queue-output value="/home/happy/sumo_projects/test/queue_baseline.xml"/>
        <summary-output value="/home/happy/sumo_projects/test/summary_baseline.xml"/>
        <tripinfo-output value="/home/happy/sumo_projects/test/tripinfo_baseline.xml"/>
    </output>

    <time>
        <step-length value="0.10"/>
    </time>

    <processing>
        <lateral-resolution value="0"/>
    </processing>

    <traci_server>
        <remote-port value="50415"/>
    </traci_server>

    <gui_only>
        <delay value="100"/>
    </gui_only>

</sumoConfiguration>
-->

<tripinfos xmlns:xsi="http://www.w3.org/2001/XMLSchema-instance" xsi:noNamespaceSchemaLocation="http://sumo.dlr.de/xsd/tripinfo_file.xsd">
    <tripinfo id="flow_west_to_north.0" depart="0.00" departLane="node1_2_eb_1" departPos="5.10" departSpeed="0.00" departDelay="0.00" arrival="29.10" arrivalLane="node3_6_sw_1" arrivalPos="89.77" arrivalSpeed="14.93" duration="29.10" routeLength="342.46" waitingTime="0.00" waitingCount="0" stopTime="0.00" timeLoss="5.60" rerouteNo="1" devices="tripinfo_flow_west_to_north.0 routing_flow_west_to_north.0 emissions_flow_west_to_north.0" vType="DEFAULT_VEHTYPE" speedFactor="1.08" vaporized="">
        <emissions CO_abs="643.62" CO2_abs="104129.53" HC_abs="4.28" PMx_abs="8.46" NOx_abs="34.57" fuel_abs="33757.15" electricity_abs="0.00"/>
    </tripinfo>
    <tripinfo id="flow_west_to_south.0" depart="0.00" departLane="node1_2_eb_0" departPos="5.10" departSpeed="0.00" departDelay="0.00" arrival="40.80" arrivalLane="node1_4_nw_0" arrivalPos="90.19" arrivalSpeed="14.00" duration="40.80" routeLength="415.27" waitingTime="0.00" waitingCount="0" stopTime="0.00" timeLoss="9.38" rerouteNo="1" devices="tripinfo_flow_west_to_south.0 routing_flow_west_to_south.0 emissions_flow_west_to_south.0" vType="DEFAULT_VEHTYPE" speedFactor="1.01" vaporized="">
        <emissions CO_abs="845.11" CO2_abs="148455.25" HC_abs="5.60" PMx_abs="9.93" NOx_abs="47.84" fuel_abs="48126.77" electricity_abs="0.00"/>
    </tripinfo>
    <tripinfo id="flow_west_to_north.1" depart="10.00" departLane="node1_2_eb_2" departPos="5.10" departSpeed="0.00" departDelay="0.00" arrival="43.30" arrivalLane="node3_6_sw_1" arrivalPos="89.77" arrivalSpeed="12.19" duration="33.30" routeLength="342.46" waitingTime="0.00" waitingCount="0" stopTime="0.00" timeLoss="4.67" rerouteNo="1" devices="tripinfo_flow_west_to_north.1 routing_flow_west_to_north.1 emissions_flow_west_to_north.1" vType="DEFAULT_VEHTYPE" speedFactor="0.89" vaporized="">
        <emissions CO_abs="421.69" CO2_abs="92353.56" HC_abs="2.81" PMx_abs="7.68" NOx_abs="29.85" fuel_abs="29939.62" electricity_abs="0.00"/>
    </tripinfo>
    <tripinfo id="flow_west_to_north.2" depart="20.00" departLane="node1_2_eb_2" departPos="5.10" departSpeed="0.00" departDelay="0.00" arrival="50.00" arrivalLane="node3_6_sw_1" arrivalPos="89.77" arrivalSpeed="14.19" duration="30.00" routeLength="342.46" waitingTime="0.00" waitingCount="0" stopTime="0.00" timeLoss="5.24" rerouteNo="1" devices="tripinfo_flow_west_to_north.2 routing_flow_west_to_north.2 emissions_flow_west_to_north.2" vType="DEFAULT_VEHTYPE" speedFactor="1.03" vaporized="">
        <emissions CO_abs="588.58" CO2_abs="101146.36" HC_abs="3.91" PMx_abs="8.22" NOx_abs="33.27" fuel_abs="32790.06" electricity_abs="0.00"/>
    </tripinfo>
    <tripinfo id="flow_west_to_south.1" depart="10.00" departLane="node1_2_eb_0" departPos="5.10" departSpeed="0.00" departDelay="0.00" arrival="50.20" arrivalLane="node1_4_nw_0" arrivalPos="90.19" arrivalSpeed="14.49" duration="40.20" routeLength="415.27" waitingTime="0.00" waitingCount="0" stopTime="0.00" timeLoss="9.71" rerouteNo="1" devices="tripinfo_flow_west_to_south.1 routing_flow_west_to_south.1 emissions_flow_west_to_south.1" vType="DEFAULT_VEHTYPE" speedFactor="1.05" vaporized="">
        <emissions CO_abs="923.92" CO2_abs="153994.93" HC_abs="6.12" PMx_abs="10.22" NOx_abs="49.89" fuel_abs="49922.63" electricity_abs="0.00"/>
    </tripinfo>
    <tripinfo id="flow_south_to_east.0" depart="0.00" departLane="node2_7_sb_2" departPos="5.10" departSpeed="0.00" departDelay="0.00" arrival="57.50" arrivalLane="node2_3_eb_2" arrivalPos="109.88" arrivalSpeed="14.68" duration="57.50" routeLength="197.42" waitingTime="35.60" waitingCount="1" stopTime="0.00" timeLoss="43.53" rerouteNo="0" devices="tripinfo_flow_south_to_east.0 routing_flow_south_to_east.0 emissions_flow_south_to_east.0" vType="DEFAULT_VEHTYPE" speedFactor="1.06" vaporized="">
        <emissions CO_abs="441.02" CO2_abs="140572.21" HC_abs="2.92" PMx_abs="5.20" NOx_abs="48.48" fuel_abs="45571.64" electricity_abs="0.00"/>
    </tripinfo>
    <tripinfo id="flow_west_to_south.2" depart="20.00" departLane="node1_2_eb_0" departPos="5.10" departSpeed="0.00" departDelay="0.00" arrival="59.50" arrivalLane="node1_4_nw_0" arrivalPos="90.19" arrivalSpeed="14.91" duration="39.50" routeLength="415.27" waitingTime="0.00" waitingCount="0" stopTime="0.00" timeLoss="10.02" rerouteNo="1" devices="tripinfo_flow_west_to_south.2 routing_flow_west_to_south.2 emissions_flow_west_to_south.2" vType="DEFAULT_VEHTYPE" speedFactor="1.09" vaporized="">
        <emissions CO_abs="994.11" CO2_abs="159208.78" HC_abs="6.58" PMx_abs="10.57" NOx_abs="52.02" fuel_abs="51612.87" electricity_abs="0.00"/>
    </tripinfo>
    <tripinfo id="flow_west_to_north.3" depart="30.00" departLane="node1_2_eb_1" departPos="5.10" departSpeed="0.00" departDelay="0.00" arrival="62.40" arrivalLane="node3_6_sw_0" arrivalPos="89.77" arrivalSpeed="12.86" duration="32.40" routeLength="337.33" waitingTime="0.00" waitingCount="0" stopTime="0.00" timeLoss="5.64" rerouteNo="1" devices="tripinfo_flow_west_to_north.3 routing_flow_west_to_north.3 emissions_flow_west_to_north.3" vType="DEFAULT_VEHTYPE" speedFactor="0.93" vaporized="">
        <emissions CO_abs="469.04" CO2_abs="97225.94" HC_abs="3.12" PMx_abs="7.79" NOx_abs="31.24" fuel_abs="31519.12" electricity_abs="0.00"/>
    </tripinfo>
    <tripinfo id="flow_south_to_west.1" depart="5.00" departLane="node2_7_sb_1" departPos="5.10" departSpeed="0.00" departDelay="0.00" arrival="67.30" arrivalLane="node4_5_wb_1" arrivalPos="114.84" arrivalSpeed="14.29" duration="62.30" routeLength="300.86" waitingTime="30.50" waitingCount="1" stopTime="0.00" timeLoss="40.55" rerouteNo="1" devices="tripinfo_flow_south_to_west.1 routing_flow_south_to_west.1 emissions_flow_south_to_west.1" vType="DEFAULT_VEHTYPE" speedFactor="1.03" vaporized="">
        <emissions CO_abs="633.63" CO2_abs="164891.40" HC_abs="4.20" PMx_abs="7.44" NOx_abs="56.00" fuel_abs="53455.48" electricity_abs="0.00"/>
    </tripinfo>
    <tripinfo id="flow_south_to_west.0" depart="0.00" departLane="node2_7_sb_0" departPos="5.10" departSpeed="0.00" departDelay="0.00" arrival="68.40" arrivalLane="node4_5_wb_0" arrivalPos="114.84" arrivalSpeed="12.99" duration="68.40" routeLength="295.61" waitingTime="35.70" waitingCount="1" stopTime="0.00" timeLoss="44.91" rerouteNo="1" devices="tripinfo_flow_south_to_west.0 routing_flow_south_to_west.0 emissions_flow_south_to_west.0" vType="DEFAULT_VEHTYPE" speedFactor="0.94" vaporized="">
        <emissions CO_abs="549.33" CO2_abs="168456.09" HC_abs="3.64" PMx_abs="7.12" NOx_abs="57.31" fuel_abs="54611.19" electricity_abs="0.00"/>
    </tripinfo>
    <tripinfo id="flow_south_to_east.1" depart="50.00" departLane="node2_7_sb_2" departPos="5.10" departSpeed="0.00" departDelay="0.00" arrival="69.30" arrivalLane="node2_3_eb_2" arrivalPos="109.88" arrivalSpeed="13.92" duration="19.30" routeLength="197.42" waitingTime="0.00" waitingCount="0" stopTime="0.00" timeLoss="4.64" rerouteNo="0" devices="tripinfo_flow_south_to_east.1 routing_flow_south_to_east.1 emissions_flow_south_to_east.1" vType="DEFAULT_VEHTYPE" speedFactor="1.01" vaporized="">
        <emissions CO_abs="406.26" CO2_abs="74649.78" HC_abs="2.69" PMx_abs="4.98" NOx_abs="23.74" fuel_abs="24200.20" electricity_abs="0.00"/>
    </tripinfo>
    <tripinfo id="flow_south_to_west.3" depart="15.00" departLane="node2_7_sb_2" departPos="5.10" departSpeed="0.00" departDelay="0.00" arrival="69.90" arrivalLane="node4_5_wb_2" arrivalPos="114.84" arrivalSpeed="12.98" duration="54.90" routeLength="306.10" waitingTime="18.00" waitingCount="1" stopTime="0.00" timeLoss="30.61" rerouteNo="1" devices="tripinfo_flow_south_to_west.3 routing_flow_south_to_west.3 emissions_flow_south_to_west.3" vType="DEFAULT_VEHTYPE" speedFactor="0.94" vaporized="">
        <emissions CO_abs="495.25" CO2_abs="136306.82" HC_abs="3.28" PMx_abs="6.91" NOx_abs="45.09" fuel_abs="44188.70" electricity_abs="0.00"/>
    </tripinfo>
    <tripinfo id="flow_south_to_west.6" depart="30.00" departLane="node2_7_sb_2" departPos="5.10" departSpeed="0.00" departDelay="0.00" arrival="71.40" arrivalLane="node4_5_wb_2" arrivalPos="114.84" arrivalSpeed="14.98" duration="41.40" routeLength="306.10" waitingTime="4.10" waitingCount="1" stopTime="0.00" timeLoss="20.33" rerouteNo="1" devices="tripinfo_flow_south_to_west.6 routing_flow_south_to_west.6 emissions_flow_south_to_west.6" vType="DEFAULT_VEHTYPE" speedFactor="1.12" vaporized="">
        <emissions CO_abs="572.04" CO2_abs="122820.04" HC_abs="3.79" PMx_abs="7.09" NOx_abs="39.28" fuel_abs="39816.25" electricity_abs="0.00"/>
    </tripinfo>
    <tripinfo id="flow_west_to_south.3" depart="30.00" departLane="node1_2_eb_0" departPos="5.10" departSpeed="0.00" departDelay="0.00" arrival="71.40" arrivalLane="node1_4_nw_0" arrivalPos="90.19" arrivalSpeed="13.65" duration="41.40" routeLength="415.27" waitingTime="0.00" waitingCount="0" stopTime="0.00" timeLoss="9.28" rerouteNo="1" devices="tripinfo_flow_west_to_south.3 routing_flow_west_to_south.3 emissions_flow_west_to_south.3" vType="DEFAULT_VEHTYPE" speedFactor="0.99" vaporized="">
        <emissions CO_abs="818.76" CO2_abs="147717.06" HC_abs="5.42" PMx_abs="9.94" NOx_abs="47.45" fuel_abs="47887.47" electricity_abs="0.00"/>
    </tripinfo>
    <tripinfo id="flow_south_to_west.4" depart="20.00" departLane="node2_7_sb_1" departPos="5.10" departSpeed="0.00" departDelay="0.00" arrival="71.60" arrivalLane="node4_5_wb_1" arrivalPos="114.84" arrivalSpeed="11.84" duration="51.60" routeLength="300.86" waitingTime="13.00" waitingCount="1" stopTime="0.00" timeLoss="25.42" rerouteNo="1" devices="tripinfo_flow_south_to_west.4 routing_flow_south_to_west.4 emissions_flow_south_to_west.4" vType="DEFAULT_VEHTYPE" speedFactor="0.86" vaporized="">
        <emissions CO_abs="409.98" CO2_abs="123368.83" HC_abs="2.72" PMx_abs="6.48" NOx_abs="40.05" fuel_abs="39994.34" electricity_abs="0.00"/>
    </tripinfo>
    <tripinfo id="flow_south_to_west.2" depart="10.00" departLane="node2_7_sb_0" departPos="5.10" departSpeed="0.00" departDelay="0.00" arrival="72.30" arrivalLane="node4_5_wb_0" arrivalPos="114.84" arrivalSpeed="11.52" duration="62.30" routeLength="295.61" waitingTime="23.00" waitingCount="1" stopTime="0.00" timeLoss="35.75" rerouteNo="1" devices="tripinfo_flow_south_to_west.2 routing_flow_south_to_west.2 emissions_flow_south_to_west.2" vType="DEFAULT_VEHTYPE" speedFactor="0.83" vaporized="">
        <emissions CO_abs="383.44" CO2_abs="138074.15" HC_abs="2.54" PMx_abs="6.41" NOx_abs="45.83" fuel_abs="44761.73" electricity_abs="0.00"/>
    </tripinfo>
    <tripinfo id="flow_south_to_west.9" depart="45.00" departLane="node2_7_sb_2" departPos="5.10" departSpeed="0.00" departDelay="0.00" arrival="73.50" arrivalLane="node4_5_wb_2" arrivalPos="114.84" arrivalSpeed="14.12" duration="28.50" routeLength="306.10" waitingTime="0.00" waitingCount="0" stopTime="0.00" timeLoss="6.13" rerouteNo="1" devices="tripinfo_flow_south_to_west.9 routing_flow_south_to_west.9 emissions_flow_south_to_west.9" vType="DEFAULT_VEHTYPE" speedFactor="1.02" vaporized="">
        <emissions CO_abs="524.59" CO2_abs="94878.18" HC_abs="3.48" PMx_abs="7.07" NOx_abs="30.79" fuel_abs="30757.98" electricity_abs="0.00"/>
    </tripinfo>
    <tripinfo id="flow_south_to_west.7" depart="35.00" departLane="node2_7_sb_1" departPos="5.10" departSpeed="0.00" departDelay="0.00" arrival="73.70" arrivalLane="node4_5_wb_1" arrivalPos="114.84" arrivalSpeed="12.19" duration="38.70" routeLength="300.86" waitingTime="0.00" waitingCount="0" stopTime="0.00" timeLoss="13.12" rerouteNo="1" devices="tripinfo_flow_south_to_west.7 routing_flow_south_to_west.7 emissions_flow_south_to_west.7" vType="DEFAULT_VEHTYPE" speedFactor="0.88" vaporized="">
        <emissions CO_abs="403.76" CO2_abs="102295.32" HC_abs="2.67" PMx_abs="6.33" NOx_abs="31.60" fuel_abs="33162.43" electricity_abs="0.00"/>
    </tripinfo>
    <tripinfo id="flow_south_to_west.5" depart="25.00" departLane="node2_7_sb_0" departPos="5.10" departSpeed="0.00" departDelay="0.00" arrival="73.80" arrivalLane="node4_5_wb_0" arrivalPos="114.84" arrivalSpeed="14.44" duration="48.80" routeLength="295.61" waitingTime="9.20" waitingCount="1" stopTime="0.00" timeLoss="27.68" rerouteNo="1" devices="tripinfo_flow_south_to_west.5 routing_flow_south_to_west.5 emissions_flow_south_to_west.5" vType="DEFAULT_VEHTYPE" speedFactor="1.05" vaporized="">
        <emissions CO_abs="458.10" CO2_abs="122553.71" HC_abs="3.03" PMx_abs="6.42" NOx_abs="39.54" fuel_abs="39730.02" electricity_abs="0.00"/>
    </tripinfo>
    <tripinfo id="flow_south_to_west.8" depart="40.00" departLane="node2_7_sb_0" departPos="5.10" departSpeed="0.00" departDelay="0.00" arrival="75.30" arrivalLane="node4_5_wb_1" arrivalPos="114.84" arrivalSpeed="13.05" duration="35.30" routeLength="300.86" waitingTime="0.00" waitingCount="0" stopTime="0.00" timeLoss="11.43" rerouteNo="1" devices="tripinfo_flow_south_to_west.8 routing_flow_south_to_west.8 emissions_flow_south_to_west.8" vType="DEFAULT_VEHTYPE" speedFactor="0.94" vaporized="">
        <emissions CO_abs="410.16" CO2_abs="96462.63" HC_abs="2.72" PMx_abs="6.26" NOx_abs="30.08" fuel_abs="31271.60" electricity_abs="0.00"/>
    </tripinfo>
    <tripinfo id="flow_south_to_west.10" depart="50.00" departLane="node2_7_sb_1" departPos="5.10" departSpeed="0.00" departDelay="0.00" arrival="78.00" arrivalLane="node4_5_wb_1" arrivalPos="114.84" arrivalSpeed="13.54" duration="28.00" routeLength="300.86" waitingTime="0.00" waitingCount="0" stopTime="0.00" timeLoss="4.89" rerouteNo="1" devices="tripinfo_flow_south_to_west.10 routing_flow_south_to_west.10 emissions_flow_south_to_west.10" vType="DEFAULT_VEHTYPE" speedFactor="0.97" vaporized="">
        <emissions CO_abs="466.59" CO2_abs="86981.36" HC_abs="3.10" PMx_abs="6.58" NOx_abs="28.11" fuel_abs="28197.96" electricity_abs="0.00"/>
    </tripinfo>
    <tripinfo id="flow_south_to_west.11" depart="55.00" departLane="node2_7_sb_0" departPos="5.10" departSpeed="0.00" departDelay="0.00" arrival="84.70" arrivalLane="node4_5_wb_0" arrivalPos="114.84" arrivalSpeed="12.00" duration="29.70" routeLength="295.61" waitingTime="0.00" waitingCount="0" stopTime="0.00" timeLoss="4.45" rerouteNo="1" devices="tripinfo_flow_south_to_west.11 routing_flow_south_to_west.11 emissions_flow_south_to_west.11" vType="DEFAULT_VEHTYPE" speedFactor="0.87" vaporized="">
        <emissions CO_abs="369.92" CO2_abs="84947.56" HC_abs="2.46" PMx_abs="6.84" NOx_abs="27.13" fuel_abs="27538.69" electricity_abs="0.00"/>
    </tripinfo>
    <tripinfo id="flow_south_to_west.12" depart="60.00" departLane="node2_7_sb_1" departPos="5.10" departSpeed="0.00" departDelay="0.00" arrival="88.80" arrivalLane="node4_5_wb_0" arrivalPos="114.84" arrivalSpeed="12.69" duration="28.80" routeLength="300.86" waitingTime="0.00" waitingCount="0" stopTime="0.00" timeLoss="4.34" rerouteNo="1" devices="tripinfo_flow_south_to_west.12 routing_flow_south_to_west.12 emissions_flow_south_to_west.12" vType="DEFAULT_VEHTYPE" speedFactor="0.92" vaporized="">
        <emissions CO_abs="417.92" CO2_abs="86122.38" HC_abs="2.78" PMx_abs="6.82" NOx_abs="27.73" fuel_abs="27919.53" electricity_abs="0.00"/>
    </tripinfo>
    <tripinfo id="flow_south_to_west.13" depart="65.00" departLane="node2_7_sb_0" departPos="5.10" departSpeed="0.00" departDelay="0.00" arrival="93.50" arrivalLane="node4_5_wb_0" arrivalPos="114.84" arrivalSpeed="12.84" duration="28.50" routeLength="295.61" waitingTime="0.00" waitingCount="0" stopTime="0.00" timeLoss="4.85" rerouteNo="1" devices="tripinfo_flow_south_to_west.13 routing_flow_south_to_west.13 emissions_flow_south_to_west.13" vType="DEFAULT_VEHTYPE" speedFactor="0.93" vaporized="">
        <emissions CO_abs="440.84" CO2_abs="88342.76" HC_abs="2.93" PMx_abs="6.68" NOx_abs="28.31" fuel_abs="28639.31" electricity_abs="0.00"/>
    </tripinfo>
    <tripinfo id="flow_south_to_west.14" depart="70.00" departLane="node2_7_sb_1" departPos="5.10" departSpeed="0.00" departDelay="0.00" arrival="95.80" arrivalLane="node4_5_wb_1" arrivalPos="114.84" arrivalSpeed="15.00" duration="25.80" routeLength="300.86" waitingTime="0.00" waitingCount="0" stopTime="0.00" timeLoss="5.18" rerouteNo="1" devices="tripinfo_flow_south_to_west.14 routing_flow_south_to_west.14 emissions_flow_south_to_west.14" vType="DEFAULT_VEHTYPE" speedFactor="1.18" vaporized="">
        <emissions CO_abs="613.54" CO2_abs="98327.99" HC_abs="4.07" PMx_abs="7.49" NOx_abs="32.33" fuel_abs="31876.33" electricity_abs="0.00"/>
    </tripinfo>
    <tripinfo id="flow_south_to_west.15" depart="75.00" departLane="node2_7_sb_0" departPos="5.10" departSpeed="0.00" departDelay="0.00" arrival="100.70" arrivalLane="node4_5_wb_0" arrivalPos="114.84" arrivalSpeed="14.89" duration="25.70" routeLength="295.61" waitingTime="0.00" waitingCount="0" stopTime="0.00" timeLoss="5.41" rerouteNo="1" devices="tripinfo_flow_south_to_west.15 routing_flow_south_to_west.15 emissions_flow_south_to_west.15" vType="DEFAULT_VEHTYPE" speedFactor="1.17" vaporized="">
        <emissions CO_abs="597.00" CO2_abs="97071.40" HC_abs="3.97" PMx_abs="7.46" NOx_abs="31.84" fuel_abs="31468.97" electricity_abs="0.00"/>
    </tripinfo>
    <tripinfo id="flow_south_to_west.16" depart="80.00" departLane="node2_7_sb_1" departPos="5.10" departSpeed="0.00" departDelay="0.00" arrival="107.30" arrivalLane="node4_5_wb_1" arrivalPos="114.84" arrivalSpeed="13.76" duration="27.30" routeLength="300.86" waitingTime="0.00" waitingCount="0" stopTime="0.00" timeLoss="4.77" rerouteNo="1" devices="tripinfo_flow_south_to_west.16 routing_flow_south_to_west.16 emissions_flow_south_to_west.16" vType="DEFAULT_VEHTYPE" speedFactor="0.99" vaporized="">
        <emissions CO_abs="504.29" CO2_abs="92302.37" HC_abs="3.35" PMx_abs="7.38" NOx_abs="30.03" fuel_abs="29922.97" electricity_abs="0.00"/>
    </tripinfo>
    <tripinfo id="flow_west_to_north.4" depart="40.00" departLane="node1_2_eb_2" departPos="5.10" departSpeed="0.00" departDelay="0.00" arrival="111.50" arrivalLane="node3_6_sw_1" arrivalPos="89.77" arrivalSpeed="14.98" duration="71.50" routeLength="342.46" waitingTime="37.50" waitingCount="1" stopTime="0.00" timeLoss="48.03" rerouteNo="1" devices="tripinfo_flow_west_to_north.4 routing_flow_west_to_north.4 emissions_flow_west_to_north.4" vType="DEFAULT_VEHTYPE" speedFactor="1.16" vaporized="">
        <emissions CO_abs="809.37" CO2_abs="190847.37" HC_abs="5.36" PMx_abs="8.41" NOx_abs="65.96" fuel_abs="61870.08" electricity_abs="0.00"/>
    </tripinfo>
    <tripinfo id="flow_west_to_north.7" depart="70.00" departLane="node1_2_eb_1" departPos="5.10" departSpeed="0.00" departDelay="0.00" arrival="114.60" arrivalLane="node3_6_sw_1" arrivalPos="89.77" arrivalSpeed="13.84" duration="44.60" routeLength="342.46" waitingTime="4.60" waitingCount="1" stopTime="0.00" timeLoss="19.38" rerouteNo="1" devices="tripinfo_flow_west_to_north.7 routing_flow_west_to_north.7 emissions_flow_west_to_north.7" vType="DEFAULT_VEHTYPE" speedFactor="1.01" vaporized="">
        <emissions CO_abs="656.31" CO2_abs="133368.56" HC_abs="4.34" PMx_abs="7.73" NOx_abs="42.98" fuel_abs="43235.92" electricity_abs="0.00"/>
    </tripinfo>
    <tripinfo id="flow_west_to_north.5" depart="50.00" departLane="node1_2_eb_1" departPos="5.10" departSpeed="0.00" departDelay="0.00" arrival="115.60" arrivalLane="node3_6_sw_1" arrivalPos="89.77" arrivalSpeed="11.38" duration="65.60" routeLength="347.59" waitingTime="26.30" waitingCount="1" stopTime="0.00" timeLoss="34.38" rerouteNo="1" devices="tripinfo_flow_west_to_north.5 routing_flow_west_to_north.5 emissions_flow_west_to_north.5" vType="DEFAULT_VEHTYPE" speedFactor="0.83" vaporized="">
        <emissions CO_abs="460.36" CO2_abs="152790.86" HC_abs="3.05" PMx_abs="7.64" NOx_abs="51.11" fuel_abs="49532.70" electricity_abs="0.00"/>
    </tripinfo>
    <tripinfo id="flow_west_to_north.6" depart="60.00" departLane="node1_2_eb_2" departPos="5.10" departSpeed="0.00" departDelay="0.00" arrival="116.90" arrivalLane="node3_6_sw_2" arrivalPos="89.77" arrivalSpeed="14.92" duration="56.90" routeLength="347.59" waitingTime="14.70" waitingCount="1" stopTime="0.00" timeLoss="33.03" rerouteNo="1" devices="tripinfo_flow_west_to_north.6 routing_flow_west_to_north.6 emissions_flow_west_to_north.6" vType="DEFAULT_VEHTYPE" speedFactor="1.13" vaporized="">
        <emissions CO_abs="627.05" CO2_abs="148013.49" HC_abs="4.15" PMx_abs="7.81" NOx_abs="49.12" fuel_abs="47983.77" electricity_abs="0.00"/>
    </tripinfo>
    <tripinfo id="flow_west_to_north.8" depart="80.00" departLane="node1_2_eb_2" departPos="5.10" departSpeed="0.00" departDelay="0.00" arrival="118.70" arrivalLane="node3_6_sw_2" arrivalPos="89.77" arrivalSpeed="13.52" duration="38.70" routeLength="347.59" waitingTime="0.00" waitingCount="0" stopTime="0.00" timeLoss="12.19" rerouteNo="1" devices="tripinfo_flow_west_to_north.8 routing_flow_west_to_north.8 emissions_flow_west_to_north.8" vType="DEFAULT_VEHTYPE" speedFactor="0.97" vaporized="">
        <emissions CO_abs="521.65" CO2_abs="111462.14" HC_abs="3.46" PMx_abs="7.63" NOx_abs="35.51" fuel_abs="36134.25" electricity_abs="0.00"/>
    </tripinfo>
    <tripinfo id="flow_west_to_north.9" depart="90.00" departLane="node1_2_eb_1" departPos="5.10" departSpeed="0.00" departDelay="0.00" arrival="119.70" arrivalLane="node3_6_sw_1" arrivalPos="89.77" arrivalSpeed="14.27" duration="29.70" routeLength="342.46" waitingTime="0.00" waitingCount="0" stopTime="0.00" timeLoss="5.10" rerouteNo="1" devices="tripinfo_flow_west_to_north.9 routing_flow_west_to_north.9 emissions_flow_west_to_north.9" vType="DEFAULT_VEHTYPE" speedFactor="1.03" vaporized="">
        <emissions CO_abs="578.84" CO2_abs="99786.06" HC_abs="3.85" PMx_abs="8.21" NOx_abs="32.79" fuel_abs="32349.07" electricity_abs="0.00"/>
    </tripinfo>
    <tripinfo id="flow_west_to_south.4" depart="40.80" departLane="node1_2_eb_0" departPos="5.10" departSpeed="0.00" departDelay="0.80" arrival="122.30" arrivalLane="node1_4_nw_0" arrivalPos="90.19" arrivalSpeed="12.99" duration="81.50" routeLength="415.27" waitingTime="36.40" waitingCount="1" stopTime="0.00" timeLoss="47.49" rerouteNo="1" devices="tripinfo_flow_west_to_south.4 routing_flow_west_to_south.4 emissions_flow_west_to_south.4" vType="DEFAULT_VEHTYPE" speedFactor="0.94" vaporized="">
        <emissions CO_abs="734.71" CO2_abs="205640.00" HC_abs="4.87" PMx_abs="9.58" NOx_abs="69.22" fuel_abs="66665.64" electricity_abs="0.00"/>
    </tripinfo>
    <tripinfo id="flow_west_to_south.7" depart="71.40" departLane="node1_2_eb_0" departPos="5.10" departSpeed="0.00" departDelay="1.40" arrival="124.70" arrivalLane="node1_4_nw_2" arrivalPos="90.19" arrivalSpeed="14.98" duration="53.30" routeLength="436.07" waitingTime="5.10" waitingCount="1" stopTime="0.00" timeLoss="22.51" rerouteNo="1" devices="tripinfo_flow_west_to_south.7 routing_flow_west_to_south.7 emissions_flow_west_to_south.7" vType="DEFAULT_VEHTYPE" speedFactor="1.15" vaporized="">
        <emissions CO_abs="953.84" CO2_abs="172410.73" HC_abs="6.32" PMx_abs="10.49" NOx_abs="56.70" fuel_abs="55892.81" electricity_abs="0.00"/>
    </tripinfo>
    <tripinfo id="flow_west_to_south.5" depart="50.20" departLane="node1_2_eb_0" departPos="5.10" departSpeed="0.00" departDelay="0.20" arrival="125.60" arrivalLane="node1_4_nw_1" arrivalPos="90.19" arrivalSpeed="12.34" duration="75.40" routeLength="425.67" waitingTime="24.10" waitingCount="1" stopTime="0.00" timeLoss="38.48" rerouteNo="1" devices="tripinfo_flow_west_to_south.5 routing_flow_west_to_south.5 emissions_flow_west_to_south.5" vType="DEFAULT_VEHTYPE" speedFactor="0.89" vaporized="">
        <emissions CO_abs="649.70" CO2_abs="183014.09" HC_abs="4.30" PMx_abs="9.46" NOx_abs="60.81" fuel_abs="59330.59" electricity_abs="0.00"/>
    </tripinfo>
    <tripinfo id="flow_west_to_south.6" depart="60.00" departLane="node1_2_eb_0" departPos="5.10" departSpeed="0.00" departDelay="0.00" arrival="126.50" arrivalLane="node1_4_nw_0" arrivalPos="90.19" arrivalSpeed="13.05" duration="66.50" routeLength="415.27" waitingTime="15.40" waitingCount="1" stopTime="0.00" timeLoss="32.89" rerouteNo="1" devices="tripinfo_flow_west_to_south.6 routing_flow_west_to_south.6 emissions_flow_west_to_south.6" vType="DEFAULT_VEHTYPE" speedFactor="0.95" vaporized="">
        <emissions CO_abs="739.39" CO2_abs="177649.55" HC_abs="4.89" PMx_abs="9.01" NOx_abs="57.87" fuel_abs="57591.27" electricity_abs="0.00"/>
    </tripinfo>
    <tripinfo id="flow_west_to_south.8" depart="80.00" departLane="node1_2_eb_0" departPos="5.10" departSpeed="0.00" departDelay="0.00" arrival="128.70" arrivalLane="node1_4_nw_1" arrivalPos="90.19" arrivalSpeed="14.11" duration="48.70" routeLength="425.67" waitingTime="0.00" waitingCount="0" stopTime="0.00" timeLoss="16.37" rerouteNo="1" devices="tripinfo_flow_west_to_south.8 routing_flow_west_to_south.8 emissions_flow_west_to_south.8" vType="DEFAULT_VEHTYPE" speedFactor="1.02" vaporized="">
        <emissions CO_abs="818.00" CO2_abs="156094.49" HC_abs="5.41" PMx_abs="9.50" NOx_abs="49.81" fuel_abs="50603.25" electricity_abs="0.00"/>
    </tripinfo>
    <tripinfo id="flow_west_to_north.10" depart="100.00" departLane="node1_2_eb_2" departPos="5.10" departSpeed="0.00" departDelay="0.00" arrival="128.80" arrivalLane="node3_6_sw_2" arrivalPos="89.77" arrivalSpeed="14.95" duration="28.80" routeLength="347.59" waitingTime="0.00" waitingCount="0" stopTime="0.00" timeLoss="4.95" rerouteNo="1" devices="tripinfo_flow_west_to_north.10 routing_flow_west_to_north.10 emissions_flow_west_to_north.10" vType="DEFAULT_VEHTYPE" speedFactor="1.09" vaporized="">
        <emissions CO_abs="637.80" CO2_abs="101196.72" HC_abs="4.24" PMx_abs="8.46" NOx_abs="33.81" fuel_abs="32806.38" electricity_abs="0.00"/>
    </tripinfo>
    <tripinfo id="flow_west_to_south.9" depart="90.00" departLane="node1_2_eb_0" departPos="5.10" departSpeed="0.00" departDelay="0.00" arrival="134.00" arrivalLane="node1_4_nw_0" arrivalPos="90.19" arrivalSpeed="12.50" duration="44.00" routeLength="415.27" waitingTime="0.00" waitingCount="0" stopTime="0.00" timeLoss="8.62" rerouteNo="1" devices="tripinfo_flow_west_to_south.9 routing_flow_west_to_south.9 emissions_flow_west_to_south.9" vType="DEFAULT_VEHTYPE" speedFactor="0.90" vaporized="">
        <emissions CO_abs="661.13" CO2_abs="136023.87" HC_abs="4.38" PMx_abs="9.05" NOx_abs="42.98" fuel_abs="44096.73" electricity_abs="0.00"/>
    </tripinfo>
    <tripinfo id="flow_west_to_south.10" depart="100.00" departLane="node1_2_eb_0" departPos="5.10" departSpeed="0.00" departDelay="0.00" arrival="140.30" arrivalLane="node1_4_nw_0" arrivalPos="90.19" arrivalSpeed="14.47" duration="40.30" routeLength="415.27" waitingTime="0.00" waitingCount="0" stopTime="0.00" timeLoss="9.82" rerouteNo="1" devices="tripinfo_flow_west_to_south.10 routing_flow_west_to_south.10 emissions_flow_west_to_south.10" vType="DEFAULT_VEHTYPE" speedFactor="1.04" vaporized="">
        <emissions CO_abs="923.99" CO2_abs="153847.69" HC_abs="6.12" PMx_abs="10.16" NOx_abs="49.87" fuel_abs="49874.89" electricity_abs="0.00"/>
    </tripinfo>
    <tripinfo id="flow_west_to_north.11" depart="110.00" departLane="node1_2_eb_1" departPos="5.10" departSpeed="0.00" departDelay="0.00" arrival="144.40" arrivalLane="node3_6_sw_0" arrivalPos="89.77" arrivalSpeed="11.70" duration="34.40" routeLength="337.33" waitingTime="0.00" waitingCount="0" stopTime="0.00" timeLoss="5.27" rerouteNo="1" devices="tripinfo_flow_west_to_north.11 routing_flow_west_to_north.11 emissions_flow_west_to_north.11" vType="DEFAULT_VEHTYPE" speedFactor="0.85" vaporized="">
        <emissions CO_abs="396.61" CO2_abs="92899.28" HC_abs="2.64" PMx_abs="7.38" NOx_abs="29.59" fuel_abs="30116.50" electricity_abs="0.00"/>
    </tripinfo>
    <tripinfo id="flow_west_to_north.12" depart="120.00" departLane="node1_2_eb_2" departPos="5.10" departSpeed="0.00" departDelay="0.00" arrival="148.50" arrivalLane="node3_6_sw_2" arrivalPos="89.77" arrivalSpeed="14.99" duration="28.50" routeLength="347.59" waitingTime="0.00" waitingCount="0" stopTime="0.00" timeLoss="4.67" rerouteNo="1" devices="tripinfo_flow_west_to_north.12 routing_flow_west_to_north.12 emissions_flow_west_to_north.12" vType="DEFAULT_VEHTYPE" speedFactor="1.10" vaporized="">
        <emissions CO_abs="644.16" CO2_abs="101197.91" HC_abs="4.28" PMx_abs="8.50" NOx_abs="33.79" fuel_abs="32806.77" electricity_abs="0.00"/>
    </tripinfo>