<?xml version="1.0" encoding="UTF-8"?>

<!-- generated on 2025-09-24 11:51:55 by Eclipse SUMO GUI Version 1.24.0
<sumoConfiguration xmlns:xsi="http://www.w3.org/2001/XMLSchema-instance" xsi:noNamespaceSchemaLocation="http://sumo.dlr.de/xsd/sumoConfiguration.xsd">

    <input>
        <net-file value="/home/happy/sumo_projects/test/rl.net.xml"/>
        <route-files value="/home/happy/sumo_projects/test/rl.rou.xml"/>
        <additional-files value="/home/happy/sumo_projects/test/rl.add.xml"/>
    </input>

    <output>
        <emission-output value="/home/happy/sumo_projects/test/emission.xml"/>
        <queue-output value="/home/happy/sumo_projects/test/queue.xml"/>
        <summary-output value="/home/happy/sumo_projects/test/summary.xml"/>
        <tripinfo-output value="/home/happy/sumo_projects/test/tripinfo.xml"/>
    </output>

    <time>
        <step-length value="0.10"/>
    </time>

    <processing>
        <lateral-resolution value="0"/>
    </processing>

    <traci_server>
        <remote-port value="45505"/>
    </traci_server>

    <gui_only>
        <delay value="1000"/>
    </gui_only>

</sumoConfiguration>
-->

<tripinfos xmlns:xsi="http://www.w3.org/2001/XMLSchema-instance" xsi:noNamespaceSchemaLocation="http://sumo.dlr.de/xsd/tripinfo_file.xsd">
    <tripinfo id="flow_south_to_east.0" depart="0.00" departLane="node2_7_sb_2" departPos="5.10" departSpeed="0.00" departDelay="0.00" arrival="18.80" arrivalLane="node2_3_eb_2" arrivalPos="109.88" arrivalSpeed="14.64" duration="18.80" routeLength="197.42" waitingTime="0.00" waitingCount="0" stopTime="0.00" timeLoss="4.82" rerouteNo="0" devices="tripinfo_flow_south_to_east.0 routing_flow_south_to_east.0 emissions_flow_south_to_east.0" vType="DEFAULT_VEHTYPE" speedFactor="1.06" vaporized="">
        <emissions CO_abs="458.96" CO2_abs="78646.88" HC_abs="3.04" PMx_abs="5.14" NOx_abs="25.14" fuel_abs="25495.98" electricity_abs="0.00"/>
    </tripinfo>
    <tripinfo id="flow_south_to_west.0" depart="0.00" departLane="node2_7_sb_0" departPos="5.10" departSpeed="0.00" departDelay="0.00" arrival="28.30" arrivalLane="node4_5_wb_0" arrivalPos="114.84" arrivalSpeed="12.96" duration="28.30" routeLength="295.61" waitingTime="0.00" waitingCount="0" stopTime="0.00" timeLoss="4.77" rerouteNo="1" devices="tripinfo_flow_south_to_west.0 routing_flow_south_to_west.0 emissions_flow_south_to_west.0" vType="DEFAULT_VEHTYPE" speedFactor="0.94" vaporized="">
        <emissions CO_abs="444.03" CO2_abs="88235.57" HC_abs="2.95" PMx_abs="6.70" NOx_abs="28.30" fuel_abs="28604.56" electricity_abs="0.00"/>
    </tripinfo>
    <tripinfo id="flow_south_to_west.1" depart="5.00" departLane="node2_7_sb_1" departPos="5.10" departSpeed="0.00" departDelay="0.00" arrival="31.90" arrivalLane="node4_5_wb_1" arrivalPos="114.84" arrivalSpeed="14.29" duration="26.90" routeLength="300.86" waitingTime="0.00" waitingCount="0" stopTime="0.00" timeLoss="5.12" rerouteNo="1" devices="tripinfo_flow_south_to_west.1 routing_flow_south_to_west.1 emissions_flow_south_to_west.1" vType="DEFAULT_VEHTYPE" speedFactor="1.03" vaporized="">
        <emissions CO_abs="549.39" CO2_abs="94716.91" HC_abs="3.65" PMx_abs="7.32" NOx_abs="30.97" fuel_abs="30705.70" electricity_abs="0.00"/>
    </tripinfo>
    <tripinfo id="flow_west_to_north.0" depart="0.00" departLane="node1_2_eb_1" departPos="5.10" departSpeed="0.00" departDelay="0.00" arrival="37.90" arrivalLane="node3_6_sw_0" arrivalPos="89.77" arrivalSpeed="14.87" duration="37.90" routeLength="337.33" waitingTime="3.00" waitingCount="1" stopTime="0.00" timeLoss="14.91" rerouteNo="1" devices="tripinfo_flow_west_to_north.0 routing_flow_west_to_north.0 emissions_flow_west_to_north.0" vType="DEFAULT_VEHTYPE" speedFactor="1.08" vaporized="">
        <emissions CO_abs="791.89" CO2_abs="142029.26" HC_abs="5.24" PMx_abs="8.61" NOx_abs="45.60" fuel_abs="46043.46" electricity_abs="0.00"/>
    </tripinfo>
    <tripinfo id="flow_west_to_north.1" depart="10.00" departLane="node1_2_eb_2" departPos="5.10" departSpeed="0.00" departDelay="0.00" arrival="43.30" arrivalLane="node3_6_sw_1" arrivalPos="89.77" arrivalSpeed="12.26" duration="33.30" routeLength="347.59" waitingTime="0.00" waitingCount="0" stopTime="0.00" timeLoss="4.14" rerouteNo="1" devices="tripinfo_flow_west_to_north.1 routing_flow_west_to_north.1 emissions_flow_west_to_north.1" vType="DEFAULT_VEHTYPE" speedFactor="0.89" vaporized="">
        <emissions CO_abs="414.31" CO2_abs="90035.67" HC_abs="2.76" PMx_abs="7.73" NOx_abs="29.32" fuel_abs="29188.22" electricity_abs="0.00"/>
    </tripinfo>
    <tripinfo id="flow_west_to_south.0" depart="0.00" departLane="node1_2_eb_0" departPos="5.10" departSpeed="0.00" departDelay="0.00" arrival="46.80" arrivalLane="node1_4_nw_0" arrivalPos="90.19" arrivalSpeed="14.02" duration="46.80" routeLength="415.27" waitingTime="2.90" waitingCount="1" stopTime="0.00" timeLoss="15.23" rerouteNo="1" devices="tripinfo_flow_west_to_south.0 routing_flow_west_to_south.0 emissions_flow_west_to_south.0" vType="DEFAULT_VEHTYPE" speedFactor="1.01" vaporized="">
        <emissions CO_abs="865.03" CO2_abs="165088.04" HC_abs="5.73" PMx_abs="10.20" NOx_abs="52.66" fuel_abs="53518.79" electricity_abs="0.00"/>
    </tripinfo>
    <tripinfo id="flow_south_to_west.3" depart="15.00" departLane="node2_7_sb_1" departPos="5.10" departSpeed="0.00" departDelay="0.00" arrival="49.20" arrivalLane="node4_5_wb_1" arrivalPos="114.84" arrivalSpeed="12.92" duration="34.20" routeLength="300.86" waitingTime="1.20" waitingCount="1" stopTime="0.00" timeLoss="10.26" rerouteNo="1" devices="tripinfo_flow_south_to_west.3 routing_flow_south_to_west.3 emissions_flow_south_to_west.3" vType="DEFAULT_VEHTYPE" speedFactor="0.94" vaporized="">
        <emissions CO_abs="545.25" CO2_abs="115112.11" HC_abs="3.61" PMx_abs="7.25" NOx_abs="36.04" fuel_abs="37317.39" electricity_abs="0.00"/>
    </tripinfo>
    <tripinfo id="flow_west_to_south.1" depart="10.00" departLane="node1_2_eb_0" departPos="5.10" departSpeed="0.00" departDelay="0.00" arrival="49.80" arrivalLane="node1_4_nw_1" arrivalPos="90.19" arrivalSpeed="14.41" duration="39.80" routeLength="425.67" waitingTime="0.00" waitingCount="0" stopTime="0.00" timeLoss="8.34" rerouteNo="1" devices="tripinfo_flow_west_to_south.1 routing_flow_west_to_south.1 emissions_flow_west_to_south.1" vType="DEFAULT_VEHTYPE" speedFactor="1.05" vaporized="">
        <emissions CO_abs="911.34" CO2_abs="147735.83" HC_abs="6.03" PMx_abs="9.89" NOx_abs="48.27" fuel_abs="47893.55" electricity_abs="0.00"/>
    </tripinfo>
    <tripinfo id="flow_south_to_west.4" depart="20.00" departLane="node2_7_sb_2" departPos="5.10" departSpeed="0.00" departDelay="0.00" arrival="50.40" arrivalLane="node4_5_wb_2" arrivalPos="114.84" arrivalSpeed="11.79" duration="30.40" routeLength="306.10" waitingTime="0.00" waitingCount="0" stopTime="0.00" timeLoss="3.86" rerouteNo="1" devices="tripinfo_flow_south_to_west.4 routing_flow_south_to_west.4 emissions_flow_south_to_west.4" vType="DEFAULT_VEHTYPE" speedFactor="0.86" vaporized="">
        <emissions CO_abs="364.06" CO2_abs="82434.85" HC_abs="2.42" PMx_abs="6.65" NOx_abs="26.48" fuel_abs="26724.12" electricity_abs="0.00"/>
    </tripinfo>
    <tripinfo id="flow_south_to_west.2" depart="10.00" departLane="node2_7_sb_0" departPos="5.10" departSpeed="0.00" departDelay="0.00" arrival="51.00" arrivalLane="node4_5_wb_0" arrivalPos="114.84" arrivalSpeed="11.44" duration="41.00" routeLength="295.61" waitingTime="6.10" waitingCount="1" stopTime="0.00" timeLoss="14.41" rerouteNo="1" devices="tripinfo_flow_south_to_west.2 routing_flow_south_to_west.2 emissions_flow_south_to_west.2" vType="DEFAULT_VEHTYPE" speedFactor="0.83" vaporized="">
        <emissions CO_abs="412.23" CO2_abs="113066.92" HC_abs="2.73" PMx_abs="6.64" NOx_abs="35.52" fuel_abs="36654.47" electricity_abs="0.00"/>
    </tripinfo>
    <tripinfo id="flow_south_to_west.5" depart="25.00" departLane="node2_7_sb_0" departPos="5.10" departSpeed="0.00" departDelay="0.00" arrival="52.20" arrivalLane="node4_5_wb_1" arrivalPos="114.84" arrivalSpeed="14.53" duration="27.20" routeLength="300.86" waitingTime="0.00" waitingCount="0" stopTime="0.00" timeLoss="5.69" rerouteNo="1" devices="tripinfo_flow_south_to_west.5 routing_flow_south_to_west.5 emissions_flow_south_to_west.5" vType="DEFAULT_VEHTYPE" speedFactor="1.05" vaporized="">
        <emissions CO_abs="556.63" CO2_abs="94850.36" HC_abs="3.70" PMx_abs="7.10" NOx_abs="30.92" fuel_abs="30748.95" electricity_abs="0.00"/>
    </tripinfo>
    <tripinfo id="flow_west_to_north.2" depart="20.00" departLane="node1_2_eb_1" departPos="5.10" departSpeed="0.00" departDelay="0.00" arrival="57.90" arrivalLane="node3_6_sw_1" arrivalPos="89.77" arrivalSpeed="14.22" duration="37.90" routeLength="342.46" waitingTime="2.90" waitingCount="1" stopTime="0.00" timeLoss="13.16" rerouteNo="1" devices="tripinfo_flow_west_to_north.2 routing_flow_west_to_north.2 emissions_flow_west_to_north.2" vType="DEFAULT_VEHTYPE" speedFactor="1.03" vaporized="">
        <emissions CO_abs="708.73" CO2_abs="133525.05" HC_abs="4.70" PMx_abs="8.53" NOx_abs="42.91" fuel_abs="43286.59" electricity_abs="0.00"/>
    </tripinfo>
    <tripinfo id="flow_west_to_north.3" depart="30.00" departLane="node1_2_eb_2" departPos="5.10" departSpeed="0.00" departDelay="0.00" arrival="62.10" arrivalLane="node3_6_sw_2" arrivalPos="89.77" arrivalSpeed="12.75" duration="32.10" routeLength="347.59" waitingTime="0.00" waitingCount="0" stopTime="0.00" timeLoss="4.22" rerouteNo="1" devices="tripinfo_flow_west_to_north.3 routing_flow_west_to_north.3 emissions_flow_west_to_north.3" vType="DEFAULT_VEHTYPE" speedFactor="0.93" vaporized="">
        <emissions CO_abs="469.26" CO2_abs="92942.02" HC_abs="3.12" PMx_abs="7.81" NOx_abs="30.38" fuel_abs="30130.39" electricity_abs="0.00"/>
    </tripinfo>
    <tripinfo id="flow_west_to_south.2" depart="20.00" departLane="node1_2_eb_0" departPos="5.10" departSpeed="0.00" departDelay="0.00" arrival="65.70" arrivalLane="node1_4_nw_0" arrivalPos="90.19" arrivalSpeed="14.89" duration="45.70" routeLength="415.27" waitingTime="3.20" waitingCount="1" stopTime="0.00" timeLoss="16.24" rerouteNo="1" devices="tripinfo_flow_west_to_south.2 routing_flow_west_to_south.2 emissions_flow_west_to_south.2" vType="DEFAULT_VEHTYPE" speedFactor="1.09" vaporized="">
        <emissions CO_abs="1015.50" CO2_abs="175125.12" HC_abs="6.72" PMx_abs="10.40" NOx_abs="56.44" fuel_abs="56772.59" electricity_abs="0.00"/>
    </tripinfo>
    <tripinfo id="flow_south_to_west.6" depart="30.00" departLane="node2_7_sb_1" departPos="5.10" departSpeed="0.00" departDelay="0.00" arrival="67.50" arrivalLane="node4_5_wb_0" arrivalPos="114.84" arrivalSpeed="14.94" duration="37.50" routeLength="300.86" waitingTime="6.20" waitingCount="1" stopTime="0.00" timeLoss="16.81" rerouteNo="1" devices="tripinfo_flow_south_to_west.6 routing_flow_south_to_west.6 emissions_flow_south_to_west.6" vType="DEFAULT_VEHTYPE" speedFactor="1.12" vaporized="">
        <emissions CO_abs="678.93" CO2_abs="130369.89" HC_abs="4.49" PMx_abs="7.43" NOx_abs="42.07" fuel_abs="42263.74" electricity_abs="0.00"/>
    </tripinfo>
    <tripinfo id="flow_south_to_west.8" depart="40.00" departLane="node2_7_sb_2" departPos="5.10" departSpeed="0.00" departDelay="0.00" arrival="68.50" arrivalLane="node4_5_wb_2" arrivalPos="114.84" arrivalSpeed="12.98" duration="28.50" routeLength="306.10" waitingTime="0.00" waitingCount="0" stopTime="0.00" timeLoss="4.30" rerouteNo="1" devices="tripinfo_flow_south_to_west.8 routing_flow_south_to_west.8 emissions_flow_south_to_west.8" vType="DEFAULT_VEHTYPE" speedFactor="0.94" vaporized="">
        <emissions CO_abs="453.43" CO2_abs="89119.05" HC_abs="3.01" PMx_abs="7.18" NOx_abs="28.85" fuel_abs="28891.00" electricity_abs="0.00"/>
    </tripinfo>
    <tripinfo id="flow_south_to_west.7" depart="35.00" departLane="node2_7_sb_0" departPos="5.10" departSpeed="0.00" departDelay="0.00" arrival="70.20" arrivalLane="node4_5_wb_0" arrivalPos="114.84" arrivalSpeed="12.18" duration="35.20" routeLength="295.61" waitingTime="1.20" waitingCount="1" stopTime="0.00" timeLoss="10.11" rerouteNo="1" devices="tripinfo_flow_south_to_west.7 routing_flow_south_to_west.7 emissions_flow_south_to_west.7" vType="DEFAULT_VEHTYPE" speedFactor="0.88" vaporized="">
        <emissions CO_abs="467.82" CO2_abs="110344.46" HC_abs="3.10" PMx_abs="6.94" NOx_abs="34.20" fuel_abs="35771.81" electricity_abs="0.00"/>
    </tripinfo>
    <tripinfo id="flow_west_to_south.3" depart="30.00" departLane="node1_2_eb_0" departPos="5.10" departSpeed="0.00" departDelay="0.00" arrival="71.40" arrivalLane="node1_4_nw_0" arrivalPos="90.19" arrivalSpeed="13.74" duration="41.40" routeLength="415.27" waitingTime="0.00" waitingCount="0" stopTime="0.00" timeLoss="9.18" rerouteNo="1" devices="tripinfo_flow_west_to_south.3 routing_flow_west_to_south.3 emissions_flow_west_to_south.3" vType="DEFAULT_VEHTYPE" speedFactor="0.99" vaporized="">
        <emissions CO_abs="814.69" CO2_abs="148007.44" HC_abs="5.40" PMx_abs="10.10" NOx_abs="47.59" fuel_abs="47981.62" electricity_abs="0.00"/>
    </tripinfo>
    <tripinfo id="flow_south_to_west.9" depart="45.00" departLane="node2_7_sb_1" departPos="5.10" departSpeed="0.00" departDelay="0.00" arrival="72.00" arrivalLane="node4_5_wb_1" arrivalPos="114.84" arrivalSpeed="14.10" duration="27.00" routeLength="300.86" waitingTime="0.00" waitingCount="0" stopTime="0.00" timeLoss="4.96" rerouteNo="1" devices="tripinfo_flow_south_to_west.9 routing_flow_south_to_west.9 emissions_flow_south_to_west.9" vType="DEFAULT_VEHTYPE" speedFactor="1.02" vaporized="">
        <emissions CO_abs="530.25" CO2_abs="93786.84" HC_abs="3.52" PMx_abs="7.42" NOx_abs="30.66" fuel_abs="30404.21" electricity_abs="0.00"/>
    </tripinfo>
    <tripinfo id="flow_west_to_north.4" depart="40.00" departLane="node1_2_eb_1" departPos="5.10" departSpeed="0.00" departDelay="0.00" arrival="77.80" arrivalLane="node3_6_sw_0" arrivalPos="89.77" arrivalSpeed="14.87" duration="37.80" routeLength="337.33" waitingTime="3.30" waitingCount="1" stopTime="0.00" timeLoss="14.90" rerouteNo="1" devices="tripinfo_flow_west_to_north.4 routing_flow_west_to_north.4 emissions_flow_west_to_north.4" vType="DEFAULT_VEHTYPE" speedFactor="1.16" vaporized="">
        <emissions CO_abs="793.39" CO2_abs="141460.19" HC_abs="5.25" PMx_abs="8.48" NOx_abs="45.46" fuel_abs="45858.98" electricity_abs="0.00"/>
    </tripinfo>
    <tripinfo id="flow_south_to_east.1" depart="50.00" departLane="node2_7_sb_2" departPos="5.10" departSpeed="0.00" departDelay="0.00" arrival="78.50" arrivalLane="node2_3_eb_2" arrivalPos="109.88" arrivalSpeed="14.02" duration="28.50" routeLength="197.42" waitingTime="6.30" waitingCount="1" stopTime="0.00" timeLoss="13.84" rerouteNo="0" devices="tripinfo_flow_south_to_east.1 routing_flow_south_to_east.1 emissions_flow_south_to_east.1" vType="DEFAULT_VEHTYPE" speedFactor="1.01" vaporized="">
        <emissions CO_abs="397.51" CO2_abs="92769.05" HC_abs="2.63" PMx_abs="5.09" NOx_abs="29.34" fuel_abs="30074.17" electricity_abs="0.00"/>
    </tripinfo>
    <tripinfo id="flow_west_to_north.5" depart="50.00" departLane="node1_2_eb_2" departPos="5.10" departSpeed="0.00" departDelay="0.00" arrival="84.90" arrivalLane="node3_6_sw_1" arrivalPos="89.77" arrivalSpeed="11.34" duration="34.90" routeLength="342.46" waitingTime="0.00" waitingCount="0" stopTime="0.00" timeLoss="4.15" rerouteNo="1" devices="tripinfo_flow_west_to_north.5 routing_flow_west_to_north.5 emissions_flow_west_to_north.5" vType="DEFAULT_VEHTYPE" speedFactor="0.83" vaporized="">
        <emissions CO_abs="369.22" CO2_abs="89155.24" HC_abs="2.46" PMx_abs="7.33" NOx_abs="28.62" fuel_abs="28902.78" electricity_abs="0.00"/>
    </tripinfo>
    <tripinfo id="flow_west_to_south.4" depart="40.00" departLane="node1_2_eb_0" departPos="5.10" departSpeed="0.00" departDelay="0.00" arrival="88.10" arrivalLane="node1_4_nw_0" arrivalPos="90.19" arrivalSpeed="12.91" duration="48.10" routeLength="415.27" waitingTime="2.70" waitingCount="1" stopTime="0.00" timeLoss="14.10" rerouteNo="1" devices="tripinfo_flow_west_to_south.4 routing_flow_west_to_south.4 emissions_flow_west_to_south.4" vType="DEFAULT_VEHTYPE" speedFactor="0.94" vaporized="">
        <emissions CO_abs="728.04" CO2_abs="154928.43" HC_abs="4.82" PMx_abs="9.69" NOx_abs="48.85" fuel_abs="50225.22" electricity_abs="0.00"/>
    </tripinfo>
    <tripinfo id="flow_south_to_west.10" depart="50.00" departLane="node2_7_sb_0" departPos="5.10" departSpeed="0.00" departDelay="0.00" arrival="88.90" arrivalLane="node4_5_wb_0" arrivalPos="114.84" arrivalSpeed="13.43" duration="38.90" routeLength="295.61" waitingTime="6.40" waitingCount="1" stopTime="0.00" timeLoss="16.29" rerouteNo="1" devices="tripinfo_flow_south_to_west.10 routing_flow_south_to_west.10 emissions_flow_south_to_west.10" vType="DEFAULT_VEHTYPE" speedFactor="0.97" vaporized="">
        <emissions CO_abs="581.33" CO2_abs="125785.29" HC_abs="3.85" PMx_abs="7.16" NOx_abs="40.04" fuel_abs="40777.52" electricity_abs="0.00"/>
    </tripinfo>
    <tripinfo id="flow_south_to_west.11" depart="55.00" departLane="node2_7_sb_1" departPos="5.10" departSpeed="0.00" departDelay="0.00" arrival="90.30" arrivalLane="node4_5_wb_0" arrivalPos="114.84" arrivalSpeed="12.04" duration="35.30" routeLength="300.86" waitingTime="1.20" waitingCount="1" stopTime="0.00" timeLoss="9.55" rerouteNo="1" devices="tripinfo_flow_south_to_west.11 routing_flow_south_to_west.11 emissions_flow_south_to_west.11" vType="DEFAULT_VEHTYPE" speedFactor="0.87" vaporized="">
        <emissions CO_abs="468.51" CO2_abs="108793.52" HC_abs="3.10" PMx_abs="6.80" NOx_abs="33.76" fuel_abs="35269.01" electricity_abs="0.00"/>
    </tripinfo>
    <tripinfo id="flow_south_to_west.12" depart="60.00" departLane="node2_7_sb_0" departPos="5.10" departSpeed="0.00" departDelay="0.00" arrival="91.80" arrivalLane="node4_5_wb_2" arrivalPos="114.84" arrivalSpeed="12.70" duration="31.80" routeLength="306.10" waitingTime="0.00" waitingCount="0" stopTime="0.00" timeLoss="6.91" rerouteNo="1" devices="tripinfo_flow_south_to_west.12 routing_flow_south_to_west.12 emissions_flow_south_to_west.12" vType="DEFAULT_VEHTYPE" speedFactor="0.92" vaporized="">
        <emissions CO_abs="483.52" CO2_abs="98762.37" HC_abs="3.20" PMx_abs="6.74" NOx_abs="31.40" fuel_abs="32017.17" electricity_abs="0.00"/>
    </tripinfo>
    <tripinfo id="flow_south_to_west.13" depart="65.00" departLane="node2_7_sb_1" departPos="5.10" departSpeed="0.00" departDelay="0.00" arrival="93.50" arrivalLane="node4_5_wb_1" arrivalPos="114.84" arrivalSpeed="12.86" duration="28.50" routeLength="300.86" waitingTime="0.00" waitingCount="0" stopTime="0.00" timeLoss="4.39" rerouteNo="1" devices="tripinfo_flow_south_to_west.13 routing_flow_south_to_west.13 emissions_flow_south_to_west.13" vType="DEFAULT_VEHTYPE" speedFactor="0.93" vaporized="">
        <emissions CO_abs="428.51" CO2_abs="86728.56" HC_abs="2.85" PMx_abs="6.94" NOx_abs="27.96" fuel_abs="28116.04" electricity_abs="0.00"/>
    </tripinfo>
    <tripinfo id="flow_west_to_south.5" depart="50.00" departLane="node1_2_eb_0" departPos="5.10" departSpeed="0.00" departDelay="0.00" arrival="94.00" arrivalLane="node1_4_nw_0" arrivalPos="90.19" arrivalSpeed="12.32" duration="44.00" routeLength="415.27" waitingTime="0.00" waitingCount="0" stopTime="0.00" timeLoss="8.08" rerouteNo="1" devices="tripinfo_flow_west_to_south.5 routing_flow_west_to_south.5 emissions_flow_west_to_south.5" vType="DEFAULT_VEHTYPE" speedFactor="0.89" vaporized="">
        <emissions CO_abs="642.71" CO2_abs="136635.47" HC_abs="4.26" PMx_abs="9.47" NOx_abs="43.30" fuel_abs="44295.04" electricity_abs="0.00"/>
    </tripinfo>
    <tripinfo id="flow_west_to_north.6" depart="60.00" departLane="node1_2_eb_1" departPos="5.10" departSpeed="0.00" departDelay="0.00" arrival="97.50" arrivalLane="node3_6_sw_1" arrivalPos="89.77" arrivalSpeed="14.90" duration="37.50" routeLength="342.46" waitingTime="3.20" waitingCount="1" stopTime="0.00" timeLoss="13.99" rerouteNo="1" devices="tripinfo_flow_west_to_north.6 routing_flow_west_to_north.6 emissions_flow_west_to_north.6" vType="DEFAULT_VEHTYPE" speedFactor="1.13" vaporized="">
        <emissions CO_abs="792.21" CO2_abs="138771.48" HC_abs="5.25" PMx_abs="8.59" NOx_abs="44.95" fuel_abs="44987.37" electricity_abs="0.00"/>
    </tripinfo>
    <tripinfo id="flow_west_to_north.7" depart="70.00" departLane="node1_2_eb_2" departPos="5.10" departSpeed="0.00" departDelay="0.00" arrival="100.10" arrivalLane="node3_6_sw_2" arrivalPos="89.77" arrivalSpeed="13.85" duration="30.10" routeLength="347.59" waitingTime="0.00" waitingCount="0" stopTime="0.00" timeLoss="4.40" rerouteNo="1" devices="tripinfo_flow_west_to_north.7 routing_flow_west_to_north.7 emissions_flow_west_to_north.7" vType="DEFAULT_VEHTYPE" speedFactor="1.01" vaporized="">
        <emissions CO_abs="555.40" CO2_abs="96754.08" HC_abs="3.69" PMx_abs="8.13" NOx_abs="31.95" fuel_abs="31366.17" electricity_abs="0.00"/>
    </tripinfo>
    <tripinfo id="flow_south_to_west.14" depart="70.00" departLane="node2_7_sb_0" departPos="5.10" departSpeed="0.00" departDelay="0.00" arrival="107.40" arrivalLane="node4_5_wb_0" arrivalPos="114.84" arrivalSpeed="14.93" duration="37.40" routeLength="295.61" waitingTime="6.40" waitingCount="1" stopTime="0.00" timeLoss="17.15" rerouteNo="1" devices="tripinfo_flow_south_to_west.14 routing_flow_south_to_west.14 emissions_flow_south_to_west.14" vType="DEFAULT_VEHTYPE" speedFactor="1.18" vaporized="">
        <emissions CO_abs="679.25" CO2_abs="131517.17" HC_abs="4.50" PMx_abs="7.57" NOx_abs="42.40" fuel_abs="42635.69" electricity_abs="0.00"/>
    </tripinfo>
    <tripinfo id="flow_south_to_west.15" depart="75.00" departLane="node2_7_sb_1" departPos="5.10" departSpeed="0.00" departDelay="0.00" arrival="107.40" arrivalLane="node4_5_wb_1" arrivalPos="114.84" arrivalSpeed="14.90" duration="32.40" routeLength="300.86" waitingTime="1.30" waitingCount="1" stopTime="0.00" timeLoss="11.77" rerouteNo="1" devices="tripinfo_flow_south_to_west.15 routing_flow_south_to_west.15 emissions_flow_south_to_west.15" vType="DEFAULT_VEHTYPE" speedFactor="1.17" vaporized="">
        <emissions CO_abs="682.01" CO2_abs="123933.35" HC_abs="4.52" PMx_abs="7.70" NOx_abs="39.41" fuel_abs="40177.05" electricity_abs="0.00"/>
    </tripinfo>
    <tripinfo id="flow_south_to_west.16" depart="80.00" departLane="node2_7_sb_2" departPos="5.10" departSpeed="0.00" departDelay="0.00" arrival="107.60" arrivalLane="node4_5_wb_2" arrivalPos="114.84" arrivalSpeed="13.71" duration="27.60" routeLength="306.10" waitingTime="0.00" waitingCount="0" stopTime="0.00" timeLoss="4.66" rerouteNo="1" devices="tripinfo_flow_south_to_west.16 routing_flow_south_to_west.16 emissions_flow_south_to_west.16" vType="DEFAULT_VEHTYPE" speedFactor="0.99" vaporized="">
        <emissions CO_abs="509.46" CO2_abs="91707.94" HC_abs="3.38" PMx_abs="7.20" NOx_abs="29.88" fuel_abs="29730.26" electricity_abs="0.00"/>
    </tripinfo>
    <tripinfo id="flow_west_to_south.6" depart="60.00" departLane="node1_2_eb_0" departPos="5.10" departSpeed="0.00" departDelay="0.00" arrival="108.00" arrivalLane="node1_4_nw_0" arrivalPos="90.19" arrivalSpeed="13.16" duration="48.00" routeLength="415.27" waitingTime="2.90" waitingCount="1" stopTime="0.00" timeLoss="14.41" rerouteNo="1" devices="tripinfo_flow_west_to_south.6 routing_flow_west_to_south.6 emissions_flow_west_to_south.6" vType="DEFAULT_VEHTYPE" speedFactor="0.95" vaporized="">
        <emissions CO_abs="762.81" CO2_abs="157497.82" HC_abs="5.05" PMx_abs="9.74" NOx_abs="49.75" fuel_abs="51058.16" electricity_abs="0.00"/>
    </tripinfo>
    <tripinfo id="flow_west_to_south.7" depart="71.40" departLane="node1_2_eb_0" departPos="5.10" departSpeed="0.00" departDelay="1.40" arrival="110.20" arrivalLane="node1_4_nw_1" arrivalPos="90.19" arrivalSpeed="14.94" duration="38.80" routeLength="420.42" waitingTime="0.00" waitingCount="0" stopTime="0.00" timeLoss="8.91" rerouteNo="1" devices="tripinfo_flow_west_to_south.7 routing_flow_west_to_south.7 emissions_flow_west_to_south.7" vType="DEFAULT_VEHTYPE" speedFactor="1.15" vaporized="">
        <emissions CO_abs="1000.38" CO2_abs="154087.45" HC_abs="6.62" PMx_abs="10.11" NOx_abs="50.66" fuel_abs="49952.62" electricity_abs="0.00"/>
    </tripinfo>
    <tripinfo id="flow_south_to_west.17" depart="85.00" departLane="node2_7_sb_0" departPos="5.10" departSpeed="0.00" departDelay="0.00" arrival="111.00" arrivalLane="node4_5_wb_0" arrivalPos="114.84" arrivalSpeed="14.89" duration="26.00" routeLength="295.61" waitingTime="0.00" waitingCount="0" stopTime="0.00" timeLoss="5.67" rerouteNo="1" devices="tripinfo_flow_south_to_west.17 routing_flow_south_to_west.17 emissions_flow_south_to_west.17" vType="DEFAULT_VEHTYPE" speedFactor="1.18" vaporized="">
        <emissions CO_abs="591.29" CO2_abs="95398.57" HC_abs="3.92" PMx_abs="6.99" NOx_abs="31.26" fuel_abs="30926.65" electricity_abs="0.00"/>
    </tripinfo>
    <tripinfo id="flow_south_to_east.2" depart="100.00" departLane="node2_7_sb_2" departPos="5.10" departSpeed="0.00" departDelay="0.00" arrival="118.70" arrivalLane="node2_3_eb_2" arrivalPos="109.88" arrivalSpeed="15.00" duration="18.70" routeLength="197.42" waitingTime="0.00" waitingCount="0" stopTime="0.00" timeLoss="4.98" rerouteNo="0" devices="tripinfo_flow_south_to_east.2 routing_flow_south_to_east.2 emissions_flow_south_to_east.2" vType="DEFAULT_VEHTYPE" speedFactor="1.09" vaporized="">
        <emissions CO_abs="457.96" CO2_abs="78400.16" HC_abs="3.04" PMx_abs="5.22" NOx_abs="25.09" fuel_abs="25416.00" electricity_abs="0.00"/>
    </tripinfo>
    <tripinfo id="flow_west_to_north.8" depart="80.00" departLane="node1_2_eb_1" departPos="5.10" departSpeed="0.00" departDelay="0.00" arrival="119.20" arrivalLane="node3_6_sw_0" arrivalPos="89.77" arrivalSpeed="13.43" duration="39.20" routeLength="337.33" waitingTime="3.10" waitingCount="1" stopTime="0.00" timeLoss="13.77" rerouteNo="1" devices="tripinfo_flow_west_to_north.8 routing_flow_west_to_north.8 emissions_flow_west_to_north.8" vType="DEFAULT_VEHTYPE" speedFactor="0.97" vaporized="">
        <emissions CO_abs="621.99" CO2_abs="129320.92" HC_abs="4.12" PMx_abs="7.97" NOx_abs="40.83" fuel_abs="41923.66" electricity_abs="0.00"/>
    </tripinfo>
    <tripinfo id="flow_west_to_north.9" depart="90.00" departLane="node1_2_eb_2" departPos="5.10" departSpeed="0.00" departDelay="0.00" arrival="119.80" arrivalLane="node3_6_sw_2" arrivalPos="89.77" arrivalSpeed="14.22" duration="29.80" routeLength="347.59" waitingTime="0.00" waitingCount="0" stopTime="0.00" timeLoss="4.72" rerouteNo="1" devices="tripinfo_flow_west_to_north.9 routing_flow_west_to_north.9 emissions_flow_west_to_north.9" vType="DEFAULT_VEHTYPE" speedFactor="1.03" vaporized="">
        <emissions CO_abs="581.12" CO2_abs="98195.85" HC_abs="3.87" PMx_abs="8.22" NOx_abs="32.55" fuel_abs="31833.56" electricity_abs="0.00"/>
    </tripinfo>
    <tripinfo id="flow_west_to_south.8" depart="80.00" departLane="node1_2_eb_0" departPos="5.10" departSpeed="0.00" departDelay="0.00" arrival="126.70" arrivalLane="node1_4_nw_0" arrivalPos="90.19" arrivalSpeed="14.12" duration="46.70" routeLength="415.27" waitingTime="3.20" waitingCount="1" stopTime="0.00" timeLoss="15.57" rerouteNo="1" devices="tripinfo_flow_west_to_south.8 routing_flow_west_to_south.8 emissions_flow_west_to_south.8" vType="DEFAULT_VEHTYPE" speedFactor="1.02" vaporized="">
        <emissions CO_abs="891.30" CO2_abs="166240.06" HC_abs="5.90" PMx_abs="9.98" NOx_abs="53.05" fuel_abs="53892.23" electricity_abs="0.00"/>
    </tripinfo>
    <tripinfo id="flow_south_to_west.18" depart="90.00" departLane="node2_7_sb_1" departPos="5.10" departSpeed="0.00" departDelay="0.00" arrival="127.70" arrivalLane="node4_5_wb_0" arrivalPos="114.84" arrivalSpeed="14.87" duration="37.70" routeLength="300.86" waitingTime="6.60" waitingCount="1" stopTime="0.00" timeLoss="16.92" rerouteNo="1" devices="tripinfo_flow_south_to_west.18 routing_flow_south_to_west.18 emissions_flow_south_to_west.18" vType="DEFAULT_VEHTYPE" speedFactor="1.10" vaporized="">
        <emissions CO_abs="689.82" CO2_abs="132463.23" HC_abs="4.57" PMx_abs="7.68" NOx_abs="42.84" fuel_abs="42942.38" electricity_abs="0.00"/>
    </tripinfo>
    <tripinfo id="flow_south_to_west.19" depart="95.00" departLane="node2_7_sb_0" departPos="5.10" departSpeed="0.00" departDelay="0.00" arrival="129.20" arrivalLane="node4_5_wb_0" arrivalPos="114.84" arrivalSpeed="13.25" duration="34.20" routeLength="295.61" waitingTime="1.40" waitingCount="1" stopTime="0.00" timeLoss="11.16" rerouteNo="1" devices="tripinfo_flow_south_to_west.19 routing_flow_south_to_west.19 emissions_flow_south_to_west.19" vType="DEFAULT_VEHTYPE" speedFactor="0.96" vaporized="">
        <emissions CO_abs="568.96" CO2_abs="116885.01" HC_abs="3.76" PMx_abs="6.92" NOx_abs="36.55" fuel_abs="37892.10" electricity_abs="0.00"/>
    </tripinfo>
    <tripinfo id="flow_south_to_west.20" depart="100.00" departLane="node2_7_sb_1" departPos="5.10" departSpeed="0.00" departDelay="0.00" arrival="129.90" arrivalLane="node4_5_wb_2" arrivalPos="114.84" arrivalSpeed="14.39" duration="29.90" routeLength="306.10" waitingTime="0.00" waitingCount="0" stopTime="0.00" timeLoss="7.90" rerouteNo="1" devices="tripinfo_flow_south_to_west.20 routing_flow_south_to_west.20 emissions_flow_south_to_west.20" vType="DEFAULT_VEHTYPE" speedFactor="1.04" vaporized="">
        <emissions CO_abs="610.34" CO2_abs="107639.52" HC_abs="4.04" PMx_abs="7.18" NOx_abs="34.37" fuel_abs="34894.93" electricity_abs="0.00"/>
    </tripinfo>